-0.6000000E+01  0.0000000E+00
-0.5980000E+01  0.4962476E-21
-0.5960000E+01  0.1501198E-20
-0.5940000E+01  0.2870293E-20
-0.5920000E+01  0.4545448E-20
-0.5900000E+01  0.6354624E-20
-0.5880000E+01  0.8210607E-20
-0.5860000E+01  0.9912761E-20
-0.5840000E+01  0.1139664E-19
-0.5820000E+01  0.1250110E-19
-0.5800000E+01  0.1322908E-19
-0.5780000E+01  0.1350659E-19
-0.5760000E+01  0.1342027E-19
-0.5740000E+01  0.1299722E-19
-0.5720000E+01  0.1238909E-19
-0.5700000E+01  0.1164523E-19
-0.5680000E+01  0.1093955E-19
-0.5660000E+01  0.1037275E-19
-0.5640000E+01  0.1008907E-19
-0.5620000E+01  0.1008133E-19
-0.5600000E+01  0.1042601E-19
-0.5580000E+01  0.1106212E-19
-0.5560000E+01  0.1199227E-19
-0.5540000E+01  0.1306912E-19
-0.5520000E+01  0.1424646E-19
-0.5500000E+01  0.1541097E-19
-0.5480000E+01  0.1650864E-19
-0.5460000E+01  0.1737654E-19
-0.5440000E+01  0.1799595E-19
-0.5420000E+01  0.1827667E-19
-0.5400000E+01  0.1826581E-19
-0.5380000E+01  0.1792448E-19
-0.5360000E+01  0.1736841E-19
-0.5340000E+01  0.1667518E-19
-0.5320000E+01  0.1600018E-19
-0.5300000E+01  0.1537900E-19
-0.5280000E+01  0.1496122E-19
-0.5260000E+01  0.1477299E-19
-0.5240000E+01  0.1491889E-19
-0.5220000E+01  0.1534911E-19
-0.5200000E+01  0.1610362E-19
-0.5180000E+01  0.1691581E-19
-0.5160000E+01  0.1778308E-19
-0.5140000E+01  0.1857400E-19
-0.5120000E+01  0.1928223E-19
-0.5100000E+01  0.1980245E-19
-0.5080000E+01  0.2015153E-19
-0.5060000E+01  0.2024168E-19
-0.5040000E+01  0.2013053E-19
-0.5020000E+01  0.1983458E-19
-0.5000000E+01  0.1944871E-19
-0.4980000E+01  0.1895489E-19
-0.4960000E+01  0.1846554E-19
-0.4940000E+01  0.1798314E-19
-0.4920000E+01  0.1761455E-19
-0.4900000E+01  0.1733106E-19
-0.4880000E+01  0.1721401E-19
-0.4860000E+01  0.1726574E-19
-0.4840000E+01  0.1752937E-19
-0.4820000E+01  0.1790357E-19
-0.4800000E+01  0.1839720E-19
-0.4780000E+01  0.1889741E-19
-0.4760000E+01  0.1940159E-19
-0.4740000E+01  0.1978649E-19
-0.4720000E+01  0.2006600E-19
-0.4700000E+01  0.2020999E-19
-0.4680000E+01  0.2026519E-19
-0.4660000E+01  0.2016961E-19
-0.4640000E+01  0.2000405E-19
-0.4620000E+01  0.1974868E-19
-0.4600000E+01  0.1950855E-19
-0.4580000E+01  0.1926710E-19
-0.4560000E+01  0.1913290E-19
-0.4540000E+01  0.1911233E-19
-0.4520000E+01  0.1929329E-19
-0.4500000E+01  0.1961909E-19
-0.4480000E+01  0.2014015E-19
-0.4460000E+01  0.2077057E-19
-0.4440000E+01  0.2152478E-19
-0.4420000E+01  0.2227797E-19
-0.4400000E+01  0.2302630E-19
-0.4380000E+01  0.2370802E-19
-0.4360000E+01  0.2432272E-19
-0.4340000E+01  0.2475182E-19
-0.4320000E+01  0.2501920E-19
-0.4300000E+01  0.2504881E-19
-0.4280000E+01  0.2490518E-19
-0.4260000E+01  0.2454650E-19
-0.4240000E+01  0.2407789E-19
-0.4220000E+01  0.2355545E-19
-0.4200000E+01  0.2310323E-19
-0.4180000E+01  0.2271478E-19
-0.4160000E+01  0.2250302E-19
-0.4140000E+01  0.2244551E-19
-0.4120000E+01  0.2262257E-19
-0.4100000E+01  0.2296574E-19
-0.4080000E+01  0.2351459E-19
-0.4060000E+01  0.2423437E-19
-0.4040000E+01  0.2512692E-19
-0.4020000E+01  0.2605175E-19
-0.4000000E+01  0.2699095E-19
-0.3980000E+01  0.2780558E-19
-0.3960000E+01  0.2848954E-19
-0.3940000E+01  0.2892458E-19
-0.3920000E+01  0.2914340E-19
-0.3900000E+01  0.2911178E-19
-0.3880000E+01  0.2891003E-19
-0.3860000E+01  0.2850970E-19
-0.3840000E+01  0.2802788E-19
-0.3820000E+01  0.2746749E-19
-0.3800000E+01  0.2695970E-19
-0.3780000E+01  0.2650282E-19
-0.3760000E+01  0.2621450E-19
-0.3740000E+01  0.2614357E-19
-0.3720000E+01  0.2636675E-19
-0.3700000E+01  0.2680440E-19
-0.3680000E+01  0.2748145E-19
-0.3660000E+01  0.2827566E-19
-0.3640000E+01  0.2917637E-19
-0.3620000E+01  0.3003629E-19
-0.3600000E+01  0.3083966E-19
-0.3580000E+01  0.3151612E-19
-0.3560000E+01  0.3207136E-19
-0.3540000E+01  0.3239823E-19
-0.3520000E+01  0.3254072E-19
-0.3500000E+01  0.3243758E-19
-0.3480000E+01  0.3217687E-19
-0.3460000E+01  0.3173493E-19
-0.3440000E+01  0.3123191E-19
-0.3420000E+01  0.3074519E-19
-0.3400000E+01  0.3039627E-19
-0.3380000E+01  0.3016386E-19
-0.3360000E+01  0.3014014E-19
-0.3340000E+01  0.3026830E-19
-0.3320000E+01  0.3060028E-19
-0.3300000E+01  0.3103873E-19
-0.3280000E+01  0.3160202E-19
-0.3260000E+01  0.3224004E-19
-0.3240000E+01  0.3295307E-19
-0.3220000E+01  0.3360861E-19
-0.3200000E+01  0.3421007E-19
-0.3180000E+01  0.3464214E-19
-0.3160000E+01  0.3493655E-19
-0.3140000E+01  0.3501405E-19
-0.3120000E+01  0.3494711E-19
-0.3100000E+01  0.3478094E-19
-0.3080000E+01  0.3461655E-19
-0.3060000E+01  0.3442827E-19
-0.3040000E+01  0.3432071E-19
-0.3020000E+01  0.3426130E-19
-0.3000000E+01  0.3433905E-19
-0.2980000E+01  0.3449890E-19
-0.2960000E+01  0.3480247E-19
-0.2940000E+01  0.3523324E-19
-0.2920000E+01  0.3582050E-19
-0.2900000E+01  0.3644814E-19
-0.2880000E+01  0.3712253E-19
-0.2860000E+01  0.3771525E-19
-0.2840000E+01  0.3823481E-19
-0.2820000E+01  0.3856926E-19
-0.2800000E+01  0.3875371E-19
-0.2780000E+01  0.3879943E-19
-0.2760000E+01  0.3877390E-19
-0.2740000E+01  0.3862586E-19
-0.2720000E+01  0.3844620E-19
-0.2700000E+01  0.3820009E-19
-0.2680000E+01  0.3798987E-19
-0.2660000E+01  0.3778589E-19
-0.2640000E+01  0.3768491E-19
-0.2620000E+01  0.3733908E-19
-0.2600000E+01  0.3685144E-19
-0.2580000E+01  0.3620347E-19
-0.2560000E+01  0.3551321E-19
-0.2540000E+01  0.3476482E-19
-0.2520000E+01  0.3407244E-19
-0.2500000E+01  0.3341078E-19
-0.2480000E+01  0.3287518E-19
-0.2460000E+01  0.3250944E-19
-0.2440000E+01  0.3237636E-19
-0.2420000E+01  0.3238868E-19
-0.2400000E+01  0.3257545E-19
-0.2380000E+01  0.3282057E-19
-0.2360000E+01  0.3313817E-19
-0.2340000E+01  0.3341217E-19
-0.2320000E+01  0.3366433E-19
-0.2300000E+01  0.3386489E-19
-0.2280000E+01  0.3405398E-19
-0.2260000E+01  0.3414966E-19
-0.2240000E+01  0.3421136E-19
-0.2220000E+01  0.3417245E-19
-0.2200000E+01  0.3410957E-19
-0.2180000E+01  0.3397358E-19
-0.2160000E+01  0.3384948E-19
-0.2140000E+01  0.3378700E-19
-0.2120000E+01  0.3386030E-19
-0.2100000E+01  0.3399994E-19
-0.2080000E+01  0.3425571E-19
-0.2060000E+01  0.3453100E-19
-0.2040000E+01  0.3485760E-19
-0.2020000E+01  0.3513236E-19
-0.2000000E+01  0.3538401E-19
-0.1980000E+01  0.3562665E-19
-0.1960000E+01  0.3589331E-19
-0.1940000E+01  0.3608834E-19
-0.1920000E+01  0.3625299E-19
-0.1900000E+01  0.3630044E-19
-0.1880000E+01  0.3628982E-19
-0.1860000E+01  0.3615921E-19
-0.1840000E+01  0.3598703E-19
-0.1820000E+01  0.3582798E-19
-0.1800000E+01  0.3576426E-19
-0.1780000E+01  0.3574099E-19
-0.1760000E+01  0.3582668E-19
-0.1740000E+01  0.3594511E-19
-0.1720000E+01  0.3614878E-19
-0.1700000E+01  0.3635281E-19
-0.1680000E+01  0.3659888E-19
-0.1660000E+01  0.3686718E-19
-0.1640000E+01  0.3719294E-19
-0.1620000E+01  0.3747928E-19
-0.1600000E+01  0.3776241E-19
-0.1580000E+01  0.3794760E-19
-0.1560000E+01  0.3808523E-19
-0.1540000E+01  0.3810531E-19
-0.1520000E+01  0.3807916E-19
-0.1500000E+01  0.3806123E-19
-0.1480000E+01  0.3813196E-19
-0.1460000E+01  0.3823824E-19
-0.1440000E+01  0.3845234E-19
-0.1420000E+01  0.3870333E-19
-0.1400000E+01  0.3904957E-19
-0.1380000E+01  0.3941166E-19
-0.1360000E+01  0.3983362E-19
-0.1340000E+01  0.4028760E-19
-0.1320000E+01  0.4080342E-19
-0.1300000E+01  0.4127497E-19
-0.1280000E+01  0.4172436E-19
-0.1260000E+01  0.4203953E-19
-0.1240000E+01  0.4225170E-19
-0.1220000E+01  0.4227263E-19
-0.1200000E+01  0.4215712E-19
-0.1180000E+01  0.4195206E-19
-0.1160000E+01  0.4173234E-19
-0.1140000E+01  0.4144784E-19
-0.1120000E+01  0.4118183E-19
-0.1100000E+01  0.4088329E-19
-0.1080000E+01  0.4063809E-19
-0.1060000E+01  0.4040119E-19
-0.1040000E+01  0.4025372E-19
-0.1020000E+01  0.4021499E-19
-0.1000000E+01  0.4034863E-19
-0.9800000E+00  0.4057643E-19
-0.9600000E+00  0.4093812E-19
-0.9400000E+00  0.4132821E-19
-0.9200000E+00  0.4177185E-19
-0.9000000E+00  0.4216331E-19
-0.8800000E+00  0.4252815E-19
-0.8600000E+00  0.4287980E-19
-0.8400000E+00  0.4324951E-19
-0.8200000E+00  0.4354247E-19
-0.8000000E+00  0.4379830E-19
-0.7800000E+00  0.4392873E-19
-0.7600000E+00  0.4399095E-19
-0.7400000E+00  0.4392386E-19
-0.7200000E+00  0.4380447E-19
-0.7000000E+00  0.4373844E-19
-0.6800000E+00  0.4380447E-19
-0.6600000E+00  0.4394434E-19
-0.6400000E+00  0.4421844E-19
-0.6200000E+00  0.4454232E-19
-0.6000000E+00  0.4495858E-19
-0.5800000E+00  0.4537550E-19
-0.5600000E+00  0.4582534E-19
-0.5400000E+00  0.4632568E-19
-0.5200000E+00  0.4689998E-19
-0.5000000E+00  0.4743987E-19
-0.4800000E+00  0.4796464E-19
-0.4600000E+00  0.4836283E-19
-0.4400000E+00  0.4866600E-19
-0.4200000E+00  0.4878943E-19
-0.4000000E+00  0.4878865E-19
-0.3800000E+00  0.4867938E-19
-0.3600000E+00  0.4853701E-19
-0.3400000E+00  0.4831491E-19
-0.3200000E+00  0.4809673E-19
-0.3000000E+00  0.4783319E-19
-0.2800000E+00  0.4760865E-19
-0.2600000E+00  0.4737843E-19
-0.2400000E+00  0.4722047E-19
-0.2200000E+00  0.4719840E-19
-0.2000000E+00  0.4736938E-19
-0.1800000E+00  0.4764945E-19
-0.1600000E+00  0.4806855E-19
-0.1400000E+00  0.4851442E-19
-0.1200000E+00  0.4900417E-19
-0.1000000E+00  0.4942960E-19
-0.8000000E-01  0.4981355E-19
-0.6000000E-01  0.5011471E-19
-0.4000000E-01  0.5037272E-19
-0.2000000E-01  0.5051054E-19
 0.1249001E-15  0.5058645E-19
 0.2000000E-01  0.5053555E-19
 0.4000000E-01  0.5043429E-19
 0.6000000E-01  0.5024041E-19
 0.8000000E-01  0.5004074E-19
 0.1000000E+00  0.4991820E-19
 0.1200000E+00  0.4994827E-19
 0.1400000E+00  0.5006767E-19
 0.1600000E+00  0.5032394E-19
 0.1800000E+00  0.5062035E-19
 0.2000000E+00  0.5098268E-19
 0.2200000E+00  0.5130702E-19
 0.2400000E+00  0.5161307E-19
 0.2600000E+00  0.5187478E-19
 0.2800000E+00  0.5211736E-19
 0.3000000E+00  0.5224766E-19
 0.3200000E+00  0.5230553E-19
 0.3400000E+00  0.5221132E-19
 0.3600000E+00  0.5202894E-19
 0.3800000E+00  0.5171116E-19
 0.4000000E+00  0.5134494E-19
 0.4200000E+00  0.5102467E-19
 0.4400000E+00  0.5083890E-19
 0.4600000E+00  0.5074361E-19
 0.4800000E+00  0.5080621E-19
 0.5000000E+00  0.5095172E-19
 0.5200000E+00  0.5122311E-19
 0.5400000E+00  0.5153045E-19
 0.5600000E+00  0.5189903E-19
 0.5800000E+00  0.5240823E-19
 0.6000000E+00  0.5306496E-19
 0.6200000E+00  0.5374450E-19
 0.6400000E+00  0.5444136E-19
 0.6600000E+00  0.5502517E-19
 0.6800000E+00  0.5550460E-19
 0.7000000E+00  0.5578209E-19
 0.7200000E+00  0.5590065E-19
 0.7400000E+00  0.5592741E-19
 0.7600000E+00  0.5593452E-19
 0.7800000E+00  0.5587983E-19
 0.8000000E+00  0.5584671E-19
 0.8200000E+00  0.5579210E-19
 0.8400000E+00  0.5579863E-19
 0.8600000E+00  0.5582323E-19
 0.8800000E+00  0.5593609E-19
 0.9000000E+00  0.5615264E-19
 0.9200000E+00  0.5651782E-19
 0.9400000E+00  0.5694142E-19
 0.9600000E+00  0.5744139E-19
 0.9800000E+00  0.5790162E-19
 0.1000000E+01  0.5832999E-19
 0.1020000E+01  0.5861788E-19
 0.1040000E+01  0.5878492E-19
 0.1060000E+01  0.5887178E-19
 0.1080000E+01  0.5891659E-19
 0.1100000E+01  0.5884629E-19
 0.1120000E+01  0.5871665E-19
 0.1140000E+01  0.5846874E-19
 0.1160000E+01  0.5817861E-19
 0.1180000E+01  0.5781200E-19
 0.1200000E+01  0.5745892E-19
 0.1220000E+01  0.5717500E-19
 0.1240000E+01  0.5704440E-19
 0.1260000E+01  0.5702206E-19
 0.1280000E+01  0.5716800E-19
 0.1300000E+01  0.5740522E-19
 0.1320000E+01  0.5776797E-19
 0.1340000E+01  0.5816273E-19
 0.1360000E+01  0.5860646E-19
 0.1380000E+01  0.5912511E-19
 0.1400000E+01  0.5972293E-19
 0.1420000E+01  0.6028278E-19
 0.1440000E+01  0.6080574E-19
 0.1460000E+01  0.6117770E-19
 0.1480000E+01  0.6141870E-19
 0.1500000E+01  0.6144803E-19
 0.1520000E+01  0.6131906E-19
 0.1540000E+01  0.6106119E-19
 0.1560000E+01  0.6075545E-19
 0.1580000E+01  0.6037427E-19
 0.1600000E+01  0.6000964E-19
 0.1620000E+01  0.5963290E-19
 0.1640000E+01  0.5933246E-19
 0.1660000E+01  0.5907454E-19
 0.1680000E+01  0.5893096E-19
 0.1700000E+01  0.5897826E-19
 0.1720000E+01  0.5925449E-19
 0.1740000E+01  0.5966239E-19
 0.1760000E+01  0.6020267E-19
 0.1780000E+01  0.6074614E-19
 0.1800000E+01  0.6127896E-19
 0.1820000E+01  0.6167687E-19
 0.1840000E+01  0.6194005E-19
 0.1860000E+01  0.6217499E-19
 0.1880000E+01  0.6240168E-19
 0.1900000E+01  0.6253367E-19
 0.1920000E+01  0.6260765E-19
 0.1940000E+01  0.6255442E-19
 0.1960000E+01  0.6243444E-19
 0.1980000E+01  0.6220689E-19
 0.2000000E+01  0.6195295E-19
 0.2020000E+01  0.6177970E-19
 0.2040000E+01  0.6176611E-19
 0.2060000E+01  0.6186765E-19
 0.2080000E+01  0.6213863E-19
 0.2100000E+01  0.6250405E-19
 0.2120000E+01  0.6299224E-19
 0.2140000E+01  0.6350996E-19
 0.2160000E+01  0.6406852E-19
 0.2180000E+01  0.6463817E-19
 0.2200000E+01  0.6522267E-19
 0.2220000E+01  0.6571523E-19
 0.2240000E+01  0.6612479E-19
 0.2260000E+01  0.6635569E-19
 0.2280000E+01  0.6643927E-19
 0.2300000E+01  0.6631189E-19
 0.2320000E+01  0.6603569E-19
 0.2340000E+01  0.6571066E-19
 0.2360000E+01  0.6541496E-19
 0.2380000E+01  0.6511611E-19
 0.2400000E+01  0.6488739E-19
 0.2420000E+01  0.6468434E-19
 0.2440000E+01  0.6456803E-19
 0.2460000E+01  0.6448349E-19
 0.2480000E+01  0.6447725E-19
 0.2500000E+01  0.6494778E-19
 0.2520000E+01  0.6589206E-19
 0.2540000E+01  0.6716095E-19
 0.2560000E+01  0.6868459E-19
 0.2580000E+01  0.7026610E-19
 0.2600000E+01  0.7181622E-19
 0.2620000E+01  0.7314919E-19
 0.2640000E+01  0.7420973E-19
 0.2660000E+01  0.7500193E-19
 0.2680000E+01  0.7553181E-19
 0.2700000E+01  0.7573039E-19
 0.2720000E+01  0.7566702E-19
 0.2740000E+01  0.7533106E-19
 0.2760000E+01  0.7484330E-19
 0.2780000E+01  0.7423332E-19
 0.2800000E+01  0.7364180E-19
 0.2820000E+01  0.7316997E-19
 0.2840000E+01  0.7293449E-19
 0.2860000E+01  0.7292072E-19
 0.2880000E+01  0.7318910E-19
 0.2900000E+01  0.7366279E-19
 0.2920000E+01  0.7434386E-19
 0.2940000E+01  0.7510789E-19
 0.2960000E+01  0.7592065E-19
 0.2980000E+01  0.7677250E-19
 0.3000000E+01  0.7761832E-19
 0.3020000E+01  0.7831358E-19
 0.3040000E+01  0.7883117E-19
 0.3060000E+01  0.7906122E-19
 0.3080000E+01  0.7902619E-19
 0.3100000E+01  0.7867595E-19
 0.3120000E+01  0.7809284E-19
 0.3140000E+01  0.7749989E-19
 0.3160000E+01  0.7700688E-19
 0.3180000E+01  0.7661632E-19
 0.3200000E+01  0.7642154E-19
 0.3220000E+01  0.7639699E-19
 0.3240000E+01  0.7660071E-19
 0.3260000E+01  0.7696913E-19
 0.3280000E+01  0.7752074E-19
 0.3300000E+01  0.7828995E-19
 0.3320000E+01  0.7925654E-19
 0.3340000E+01  0.8028433E-19
 0.3360000E+01  0.8133070E-19
 0.3380000E+01  0.8225450E-19
 0.3400000E+01  0.8302634E-19
 0.3420000E+01  0.8353552E-19
 0.3440000E+01  0.8379489E-19
 0.3460000E+01  0.8381190E-19
 0.3480000E+01  0.8364708E-19
 0.3500000E+01  0.8328095E-19
 0.3520000E+01  0.8280777E-19
 0.3540000E+01  0.8223228E-19
 0.3560000E+01  0.8166087E-19
 0.3580000E+01  0.8109820E-19
 0.3600000E+01  0.8063758E-19
 0.3620000E+01  0.8039287E-19
 0.3640000E+01  0.8041530E-19
 0.3660000E+01  0.8063105E-19
 0.3680000E+01  0.8103905E-19
 0.3700000E+01  0.8152295E-19
 0.3720000E+01  0.8205226E-19
 0.3740000E+01  0.8249812E-19
 0.3760000E+01  0.8283529E-19
 0.3780000E+01  0.8304241E-19
 0.3800000E+01  0.8312413E-19
 0.3820000E+01  0.8300872E-19
 0.3840000E+01  0.8274168E-19
 0.3860000E+01  0.8229535E-19
 0.3880000E+01  0.8175545E-19
 0.3900000E+01  0.8112690E-19
 0.3920000E+01  0.8051713E-19
 0.3940000E+01  0.8007084E-19
 0.3960000E+01  0.7987825E-19
 0.3980000E+01  0.7991262E-19
 0.4000000E+01  0.8021518E-19
 0.4020000E+01  0.8070863E-19
 0.4040000E+01  0.8138464E-19
 0.4060000E+01  0.8212355E-19
 0.4080000E+01  0.8288783E-19
 0.4100000E+01  0.8360762E-19
 0.4120000E+01  0.8424409E-19
 0.4140000E+01  0.8467619E-19
 0.4160000E+01  0.8489293E-19
 0.4180000E+01  0.8481670E-19
 0.4200000E+01  0.8448717E-19
 0.4220000E+01  0.8388011E-19
 0.4240000E+01  0.8308761E-19
 0.4260000E+01  0.8226038E-19
 0.4280000E+01  0.8151232E-19
 0.4300000E+01  0.8086127E-19
 0.4320000E+01  0.8040308E-19
 0.4340000E+01  0.8012728E-19
 0.4360000E+01  0.8008948E-19
 0.4380000E+01  0.8023209E-19
 0.4400000E+01  0.8056460E-19
 0.4420000E+01  0.8120773E-19
 0.4440000E+01  0.8211994E-19
 0.4460000E+01  0.8314779E-19
 0.4480000E+01  0.8421459E-19
 0.4500000E+01  0.8515784E-19
 0.4520000E+01  0.8591338E-19
 0.4540000E+01  0.8635223E-19
 0.4560000E+01  0.8646464E-19
 0.4580000E+01  0.8631744E-19
 0.4600000E+01  0.8596403E-19
 0.4620000E+01  0.8539605E-19
 0.4640000E+01  0.8471286E-19
 0.4660000E+01  0.8394419E-19
 0.4680000E+01  0.8320957E-19
 0.4700000E+01  0.8253975E-19
 0.4720000E+01  0.8204059E-19
 0.4740000E+01  0.8177159E-19
 0.4760000E+01  0.8179267E-19
 0.4780000E+01  0.8204889E-19
 0.4800000E+01  0.8254187E-19
 0.4820000E+01  0.8316719E-19
 0.4840000E+01  0.8388435E-19
 0.4860000E+01  0.8455956E-19
 0.4880000E+01  0.8514369E-19
 0.4900000E+01  0.8563911E-19
 0.4920000E+01  0.8601460E-19
 0.4940000E+01  0.8617120E-19
 0.4960000E+01  0.8611443E-19
 0.4980000E+01  0.8579493E-19
 0.5000000E+01  0.8526790E-19
 0.5020000E+01  0.8452924E-19
 0.5040000E+01  0.8367590E-19
 0.5060000E+01  0.8293418E-19
 0.5080000E+01  0.8240185E-19
 0.5100000E+01  0.8207716E-19
 0.5120000E+01  0.8201720E-19
 0.5140000E+01  0.8217718E-19
 0.5160000E+01  0.8256521E-19
 0.5180000E+01  0.8308765E-19
 0.5200000E+01  0.8371543E-19
 0.5220000E+01  0.8445296E-19
 0.5240000E+01  0.8525104E-19
 0.5260000E+01  0.8597896E-19
 0.5280000E+01  0.8659263E-19
 0.5300000E+01  0.8698827E-19
 0.5320000E+01  0.8715878E-19
 0.5340000E+01  0.8704424E-19
 0.5360000E+01  0.8669042E-19
 0.5380000E+01  0.8614117E-19
 0.5400000E+01  0.8548489E-19
 0.5420000E+01  0.8474370E-19
 0.5440000E+01  0.8402148E-19
 0.5460000E+01  0.8334610E-19
 0.5480000E+01  0.8280775E-19
 0.5500000E+01  0.8240384E-19
 0.5520000E+01  0.8218841E-19
 0.5540000E+01  0.8223684E-19
 0.5560000E+01  0.8255093E-19
 0.5580000E+01  0.8303042E-19
 0.5600000E+01  0.8363129E-19
 0.5620000E+01  0.8422845E-19
 0.5640000E+01  0.8476655E-19
 0.5660000E+01  0.8512469E-19
 0.5680000E+01  0.8527459E-19
 0.5700000E+01  0.8534848E-19
 0.5720000E+01  0.8535404E-19
 0.5740000E+01  0.8523931E-19
 0.5760000E+01  0.8504090E-19
 0.5780000E+01  0.8474103E-19
 0.5800000E+01  0.8440145E-19
 0.5820000E+01  0.8401852E-19
 0.5840000E+01  0.8366407E-19
 0.5860000E+01  0.8345092E-19
 0.5880000E+01  0.8343240E-19
 0.5900000E+01  0.8357131E-19
 0.5920000E+01  0.8388263E-19
 0.5940000E+01  0.8429730E-19
 0.5960000E+01  0.8479768E-19
 0.5980000E+01  0.8528596E-19
 0.6000000E+01  0.8573196E-19
 0.6020000E+01  0.8608170E-19
 0.6040000E+01  0.8631506E-19
 0.6060000E+01  0.8635465E-19
 0.6080000E+01  0.8620969E-19
 0.6100000E+01  0.8584498E-19
 0.6120000E+01  0.8530898E-19
 0.6140000E+01  0.8459954E-19
 0.6160000E+01  0.8379771E-19
 0.6180000E+01  0.8303688E-19
 0.6200000E+01  0.8240132E-19
 0.6220000E+01  0.8189608E-19
 0.6240000E+01  0.8157805E-19
 0.6260000E+01  0.8142377E-19
 0.6280000E+01  0.8145178E-19
 0.6300000E+01  0.8159558E-19
 0.6320000E+01  0.8184030E-19
 0.6340000E+01  0.8216569E-19
 0.6360000E+01  0.8253681E-19
 0.6380000E+01  0.8285044E-19
 0.6400000E+01  0.8307374E-19
 0.6420000E+01  0.8312595E-19
 0.6440000E+01  0.8300271E-19
 0.6460000E+01  0.8265574E-19
 0.6480000E+01  0.8212356E-19
 0.6500000E+01  0.8150848E-19
 0.6520000E+01  0.8087946E-19
 0.6540000E+01  0.8024706E-19
 0.6560000E+01  0.7968558E-19
 0.6580000E+01  0.7920721E-19
 0.6600000E+01  0.7887171E-19
 0.6620000E+01  0.7866293E-19
 0.6640000E+01  0.7861166E-19
 0.6660000E+01  0.7870435E-19
 0.6680000E+01  0.7893768E-19
 0.6700000E+01  0.7923227E-19
 0.6720000E+01  0.7956032E-19
 0.6740000E+01  0.7983481E-19
 0.6760000E+01  0.8002567E-19
 0.6780000E+01  0.8005038E-19
 0.6800000E+01  0.7990021E-19
 0.6820000E+01  0.7962542E-19
 0.6840000E+01  0.7924556E-19
 0.6860000E+01  0.7873316E-19
 0.6880000E+01  0.7813212E-19
 0.6900000E+01  0.7744389E-19
 0.6920000E+01  0.7673027E-19
 0.6940000E+01  0.7599868E-19
 0.6960000E+01  0.7531479E-19
 0.6980000E+01  0.7487078E-19
 0.7000000E+01  0.7470475E-19
 0.7020000E+01  0.7477322E-19
 0.7040000E+01  0.7506685E-19
 0.7060000E+01  0.7550591E-19
 0.7080000E+01  0.7604703E-19
 0.7100000E+01  0.7658321E-19
 0.7120000E+01  0.7706378E-19
 0.7140000E+01  0.7748631E-19
 0.7160000E+01  0.7781416E-19
 0.7180000E+01  0.7796825E-19
 0.7200000E+01  0.7794186E-19
 0.7220000E+01  0.7769974E-19
 0.7240000E+01  0.7727574E-19
 0.7260000E+01  0.7666879E-19
 0.7280000E+01  0.7594758E-19
 0.7300000E+01  0.7516208E-19
 0.7320000E+01  0.7439458E-19
 0.7340000E+01  0.7367141E-19
 0.7360000E+01  0.7306314E-19
 0.7380000E+01  0.7258037E-19
 0.7400000E+01  0.7226332E-19
 0.7420000E+01  0.7208213E-19
 0.7440000E+01  0.7204121E-19
 0.7460000E+01  0.7216884E-19
 0.7480000E+01  0.7243556E-19
 0.7500000E+01  0.7274868E-19
 0.7520000E+01  0.7306097E-19
 0.7540000E+01  0.7328303E-19
 0.7560000E+01  0.7337903E-19
 0.7580000E+01  0.7327875E-19
 0.7600000E+01  0.7298130E-19
 0.7620000E+01  0.7286756E-19
 0.7640000E+01  0.7294719E-19
 0.7660000E+01  0.7316996E-19
 0.7680000E+01  0.7352469E-19
 0.7700000E+01  0.7395086E-19
 0.7720000E+01  0.7442623E-19
 0.7740000E+01  0.7488047E-19
 0.7760000E+01  0.7529375E-19
 0.7780000E+01  0.7568968E-19
 0.7800000E+01  0.7605642E-19
 0.7820000E+01  0.7634041E-19
 0.7840000E+01  0.7654126E-19
 0.7860000E+01  0.7662659E-19
 0.7880000E+01  0.7661300E-19
 0.7900000E+01  0.7648052E-19
 0.7920000E+01  0.7626218E-19
 0.7940000E+01  0.7596543E-19
 0.7960000E+01  0.7563221E-19
 0.7980000E+01  0.7526107E-19
 0.8000000E+01  0.7489310E-19
 0.8020000E+01  0.7452744E-19
 0.8040000E+01  0.7419583E-19
 0.8060000E+01  0.7388042E-19
 0.8080000E+01  0.7359963E-19
 0.8100000E+01  0.7340072E-19
 0.8120000E+01  0.7328434E-19
 0.8140000E+01  0.7320053E-19
 0.8160000E+01  0.7313601E-19
 0.8180000E+01  0.7303993E-19
 0.8200000E+01  0.7290010E-19
 0.8220000E+01  0.7266977E-19
 0.8240000E+01  0.7235220E-19
 0.8260000E+01  0.7207706E-19
 0.8280000E+01  0.7185738E-19
 0.8300000E+01  0.7166635E-19
 0.8320000E+01  0.7151714E-19
 0.8340000E+01  0.7138930E-19
 0.8360000E+01  0.7129700E-19
 0.8380000E+01  0.7121621E-19
 0.8400000E+01  0.7116146E-19
 0.8420000E+01  0.7117953E-19
 0.8440000E+01  0.7127775E-19
 0.8460000E+01  0.7141989E-19
 0.8480000E+01  0.7160182E-19
 0.8500000E+01  0.7178332E-19
 0.8520000E+01  0.7195412E-19
 0.8540000E+01  0.7206766E-19
 0.8560000E+01  0.7211578E-19
 0.8580000E+01  0.7206000E-19
 0.8600000E+01  0.7190203E-19
 0.8620000E+01  0.7161582E-19
 0.8640000E+01  0.7121829E-19
 0.8660000E+01  0.7070387E-19
 0.8680000E+01  0.7010401E-19
 0.8700000E+01  0.6942160E-19
 0.8720000E+01  0.6869699E-19
 0.8740000E+01  0.6800174E-19
 0.8760000E+01  0.6737113E-19
 0.8780000E+01  0.6680022E-19
 0.8800000E+01  0.6630868E-19
 0.8820000E+01  0.6587982E-19
 0.8840000E+01  0.6551799E-19
 0.8860000E+01  0.6519041E-19
 0.8880000E+01  0.6489261E-19
 0.8900000E+01  0.6463087E-19
 0.8920000E+01  0.6439785E-19
 0.8940000E+01  0.6415652E-19
 0.8960000E+01  0.6390345E-19
 0.8980000E+01  0.6361377E-19
 0.9000000E+01  0.6329505E-19
 0.9020000E+01  0.6293204E-19
 0.9040000E+01  0.6254496E-19
 0.9060000E+01  0.6218586E-19
 0.9080000E+01  0.6187832E-19
 0.9100000E+01  0.6161496E-19
 0.9120000E+01  0.6141239E-19
 0.9140000E+01  0.6125747E-19
 0.9160000E+01  0.6115592E-19
 0.9180000E+01  0.6108101E-19
 0.9200000E+01  0.6102836E-19
 0.9220000E+01  0.6095247E-19
 0.9240000E+01  0.6084492E-19
 0.9260000E+01  0.6067309E-19
 0.9280000E+01  0.6043362E-19
 0.9300000E+01  0.6010544E-19
 0.9320000E+01  0.5969619E-19
 0.9340000E+01  0.5919548E-19
 0.9360000E+01  0.5862396E-19
 0.9380000E+01  0.5803143E-19
 0.9400000E+01  0.5744402E-19
 0.9420000E+01  0.5686331E-19
 0.9440000E+01  0.5631194E-19
 0.9460000E+01  0.5578802E-19
 0.9480000E+01  0.5530614E-19
 0.9500000E+01  0.5485384E-19
 0.9520000E+01  0.5443629E-19
 0.9540000E+01  0.5414562E-19
 0.9560000E+01  0.5397008E-19
 0.9580000E+01  0.5386699E-19
 0.9600000E+01  0.5380822E-19
 0.9620000E+01  0.5374401E-19
 0.9640000E+01  0.5364532E-19
 0.9660000E+01  0.5346892E-19
 0.9680000E+01  0.5320051E-19
 0.9700000E+01  0.5285728E-19
 0.9720000E+01  0.5244526E-19
 0.9740000E+01  0.5196129E-19
 0.9760000E+01  0.5142947E-19
 0.9780000E+01  0.5086322E-19
 0.9800000E+01  0.5029724E-19
 0.9820000E+01  0.4974963E-19
 0.9840000E+01  0.4925364E-19
 0.9860000E+01  0.4879551E-19
 0.9880000E+01  0.4839697E-19
 0.9900000E+01  0.4805596E-19
 0.9920000E+01  0.4777829E-19
 0.9940000E+01  0.4754574E-19
 0.9960000E+01  0.4734820E-19
 0.9980000E+01  0.4715487E-19
 0.1000000E+02  0.4694692E-19
 0.1002000E+02  0.4672158E-19
 0.1004000E+02  0.4645935E-19
 0.1006000E+02  0.4612996E-19
 0.1008000E+02  0.4572277E-19
 0.1010000E+02  0.4522099E-19
 0.1012000E+02  0.4463063E-19
 0.1014000E+02  0.4395416E-19
 0.1016000E+02  0.4321505E-19
 0.1018000E+02  0.4256991E-19
 0.1020000E+02  0.4204059E-19
 0.1022000E+02  0.4162816E-19
 0.1024000E+02  0.4133492E-19
 0.1026000E+02  0.4114069E-19
 0.1028000E+02  0.4102846E-19
 0.1030000E+02  0.4096388E-19
 0.1032000E+02  0.4091850E-19
 0.1034000E+02  0.4087503E-19
 0.1036000E+02  0.4080355E-19
 0.1038000E+02  0.4066873E-19
 0.1040000E+02  0.4045095E-19
 0.1042000E+02  0.4012897E-19
 0.1044000E+02  0.3970266E-19
 0.1046000E+02  0.3917496E-19
 0.1048000E+02  0.3856685E-19
 0.1050000E+02  0.3786192E-19
 0.1052000E+02  0.3709775E-19
 0.1054000E+02  0.3631046E-19
 0.1056000E+02  0.3554372E-19
 0.1058000E+02  0.3482898E-19
 0.1060000E+02  0.3419954E-19
 0.1062000E+02  0.3367308E-19
 0.1064000E+02  0.3326036E-19
 0.1066000E+02  0.3296714E-19
 0.1068000E+02  0.3277665E-19
 0.1070000E+02  0.3265619E-19
 0.1072000E+02  0.3256880E-19
 0.1074000E+02  0.3246582E-19
 0.1076000E+02  0.3230653E-19
 0.1078000E+02  0.3205245E-19
 0.1080000E+02  0.3167729E-19
 0.1082000E+02  0.3122649E-19
 0.1084000E+02  0.3069418E-19
 0.1086000E+02  0.3008254E-19
 0.1088000E+02  0.2940498E-19
 0.1090000E+02  0.2867732E-19
 0.1092000E+02  0.2792742E-19
 0.1094000E+02  0.2718603E-19
 0.1096000E+02  0.2648436E-19
 0.1098000E+02  0.2585414E-19
 0.1100000E+02  0.2531565E-19
 0.1102000E+02  0.2488065E-19
 0.1104000E+02  0.2454941E-19
 0.1106000E+02  0.2430695E-19
 0.1108000E+02  0.2413269E-19
 0.1110000E+02  0.2400024E-19
 0.1112000E+02  0.2387610E-19
 0.1114000E+02  0.2367525E-19
 0.1116000E+02  0.2336808E-19
 0.1118000E+02  0.2293728E-19
 0.1120000E+02  0.2237345E-19
 0.1122000E+02  0.2167656E-19
 0.1124000E+02  0.2086152E-19
 0.1126000E+02  0.1995854E-19
 0.1128000E+02  0.1900146E-19
 0.1130000E+02  0.1802833E-19
 0.1132000E+02  0.1707805E-19
 0.1134000E+02  0.1619217E-19
 0.1136000E+02  0.1539963E-19
 0.1138000E+02  0.1471813E-19
 0.1140000E+02  0.1415499E-19
 0.1142000E+02  0.1371208E-19
 0.1144000E+02  0.1337220E-19
 0.1146000E+02  0.1312084E-19
 0.1148000E+02  0.1292160E-19
 0.1150000E+02  0.1274138E-19
 0.1152000E+02  0.1253791E-19
 0.1154000E+02  0.1227223E-19
 0.1156000E+02  0.1191243E-19
 0.1158000E+02  0.1144631E-19
 0.1160000E+02  0.1086419E-19
 0.1162000E+02  0.1016385E-19
 0.1164000E+02  0.9360146E-20
 0.1166000E+02  0.8489179E-20
 0.1168000E+02  0.7583517E-20
 0.1170000E+02  0.6680527E-20
 0.1172000E+02  0.5815263E-20
 0.1174000E+02  0.5029953E-20
 0.1176000E+02  0.4346165E-20
 0.1178000E+02  0.3720080E-20
 0.1180000E+02  0.3153625E-20
 0.1182000E+02  0.2653575E-20
 0.1184000E+02  0.2205194E-20
 0.1186000E+02  0.1789684E-20
 0.1188000E+02  0.1380612E-20
 0.1190000E+02  0.9640359E-21
 0.1192000E+02  0.5120198E-21
 0.1194000E+02 -0.9771996E-23
 0.1196000E+02 -0.6196003E-21
 0.1198000E+02 -0.1311284E-20
 0.1200000E+02 -0.2085341E-20
 0.1202000E+02 -0.2929261E-20
 0.1204000E+02 -0.3827152E-20
 0.1206000E+02 -0.4740447E-20
 0.1208000E+02 -0.5645076E-20
 0.1210000E+02 -0.6494714E-20
 0.1212000E+02 -0.7271571E-20
 0.1214000E+02 -0.7946898E-20
 0.1216000E+02 -0.8519722E-20
 0.1218000E+02 -0.8993746E-20
 0.1220000E+02 -0.9388120E-20
 0.1222000E+02 -0.9710829E-20
 0.1224000E+02 -0.9996019E-20
 0.1226000E+02 -0.1029587E-19
 0.1228000E+02 -0.1064724E-19
 0.1230000E+02 -0.1106143E-19
 0.1232000E+02 -0.1156351E-19
 0.1234000E+02 -0.1216271E-19
 0.1236000E+02 -0.1286504E-19
 0.1238000E+02 -0.1364428E-19
 0.1240000E+02 -0.1448775E-19
 0.1242000E+02 -0.1543438E-19
 0.1244000E+02 -0.1645607E-19
 0.1246000E+02 -0.1749571E-19
 0.1248000E+02 -0.1851861E-19
 0.1250000E+02 -0.1948536E-19
 0.1252000E+02 -0.2037201E-19
 0.1254000E+02 -0.2114024E-19
 0.1256000E+02 -0.2178922E-19
 0.1258000E+02 -0.2235066E-19
 0.1260000E+02 -0.2284797E-19
 0.1262000E+02 -0.2328681E-19
 0.1264000E+02 -0.2370469E-19
 0.1266000E+02 -0.2413217E-19
 0.1268000E+02 -0.2460788E-19
 0.1270000E+02 -0.2513822E-19
 0.1272000E+02 -0.2574941E-19
 0.1274000E+02 -0.2614548E-19
 0.1276000E+02 -0.2635834E-19
 0.1278000E+02 -0.2640352E-19
 0.1280000E+02 -0.2633445E-19
 0.1282000E+02 -0.2619923E-19
 0.1284000E+02 -0.2605758E-19
 0.1286000E+02 -0.2593596E-19
 0.1288000E+02 -0.2588402E-19
 0.1290000E+02 -0.2596561E-19
 0.1292000E+02 -0.2620686E-19
 0.1294000E+02 -0.2658771E-19
 0.1296000E+02 -0.2710577E-19
 0.1298000E+02 -0.2773553E-19
 0.1300000E+02 -0.2845539E-19
 0.1302000E+02 -0.2920703E-19
 0.1304000E+02 -0.2996498E-19
 0.1306000E+02 -0.3076965E-19
 0.1308000E+02 -0.3160123E-19
 0.1310000E+02 -0.3241001E-19
 0.1312000E+02 -0.3318662E-19
 0.1314000E+02 -0.3391659E-19
 0.1316000E+02 -0.3460689E-19
 0.1318000E+02 -0.3523722E-19
 0.1320000E+02 -0.3582930E-19
 0.1322000E+02 -0.3643837E-19
 0.1324000E+02 -0.3709084E-19
 0.1326000E+02 -0.3777352E-19
 0.1328000E+02 -0.3850511E-19
 0.1330000E+02 -0.3928444E-19
 0.1332000E+02 -0.4011848E-19
 0.1334000E+02 -0.4097054E-19
 0.1336000E+02 -0.4183719E-19
 0.1338000E+02 -0.4272822E-19
 0.1340000E+02 -0.4363457E-19
 0.1342000E+02 -0.4450670E-19
 0.1344000E+02 -0.4533550E-19
 0.1346000E+02 -0.4610018E-19
 0.1348000E+02 -0.4680078E-19
 0.1350000E+02 -0.4740364E-19
 0.1352000E+02 -0.4792304E-19
 0.1354000E+02 -0.4841375E-19
 0.1356000E+02 -0.4890032E-19
 0.1358000E+02 -0.4936671E-19
 0.1360000E+02 -0.4983885E-19
 0.1362000E+02 -0.5032522E-19
 0.1364000E+02 -0.5084895E-19
 0.1366000E+02 -0.5138745E-19
 0.1368000E+02 -0.5195844E-19
 0.1370000E+02 -0.5264180E-19
 0.1372000E+02 -0.5344381E-19
 0.1374000E+02 -0.5431851E-19
 0.1376000E+02 -0.5525875E-19
 0.1378000E+02 -0.5623680E-19
 0.1380000E+02 -0.5724236E-19
 0.1382000E+02 -0.5822175E-19
 0.1384000E+02 -0.5917180E-19
 0.1386000E+02 -0.6013339E-19
 0.1388000E+02 -0.6111281E-19
 0.1390000E+02 -0.6207207E-19
 0.1392000E+02 -0.6302310E-19
 0.1394000E+02 -0.6396152E-19
 0.1396000E+02 -0.6490328E-19
 0.1398000E+02 -0.6581649E-19