-0.6000000E+01  0.0000000E+00
-0.5980000E+01  0.0000000E+00
-0.5960000E+01  0.3880709E-31
-0.5940000E+01  0.5415274E-30
-0.5920000E+01  0.3001291E-29
-0.5900000E+01 -0.2169511E-29
-0.5880000E+01 -0.9633225E-29
-0.5860000E+01 -0.1995189E-28
-0.5840000E+01 -0.4064516E-28
-0.5820000E+01 -0.6884931E-28
-0.5800000E+01 -0.8508557E-28
-0.5780000E+01 -0.1032203E-27
-0.5760000E+01 -0.9206084E-28
-0.5740000E+01 -0.6971680E-28
-0.5720000E+01 -0.2379900E-28
-0.5700000E+01  0.3100179E-28
-0.5680000E+01  0.9906506E-28
-0.5660000E+01  0.1584074E-27
-0.5640000E+01  0.2080516E-27
-0.5620000E+01  0.2626630E-27
-0.5600000E+01  0.3109188E-27
-0.5580000E+01  0.3321690E-27
-0.5560000E+01  0.3433577E-27
-0.5540000E+01  0.3430789E-27
-0.5520000E+01  0.3395802E-27
-0.5500000E+01  0.3118135E-27
-0.5480000E+01  0.2775983E-27
-0.5460000E+01  0.2453891E-27
-0.5440000E+01  0.2007280E-27
-0.5420000E+01  0.1367703E-27
-0.5400000E+01  0.8896756E-28
-0.5380000E+01  0.3931047E-28
-0.5360000E+01 -0.1104619E-29
-0.5340000E+01 -0.2537620E-28
-0.5320000E+01 -0.3981380E-28
-0.5300000E+01 -0.5559969E-28
-0.5280000E+01 -0.6311159E-28
-0.5260000E+01 -0.5966482E-28
-0.5240000E+01 -0.6269128E-28
-0.5220000E+01 -0.9029875E-28
-0.5200000E+01 -0.1244944E-27
-0.5180000E+01 -0.1857704E-27
-0.5160000E+01 -0.2769152E-27
-0.5140000E+01 -0.3819687E-27
-0.5120000E+01 -0.4901684E-27
-0.5100000E+01 -0.5782529E-27
-0.5080000E+01 -0.6448159E-27
-0.5060000E+01 -0.6870593E-27
-0.5040000E+01 -0.6803309E-27
-0.5020000E+01 -0.6350206E-27
-0.5000000E+01 -0.5656840E-27
-0.4980000E+01 -0.4820178E-27
-0.4960000E+01 -0.3729058E-27
-0.4940000E+01 -0.2598440E-27
-0.4920000E+01 -0.1497597E-27
-0.4900000E+01 -0.5374202E-28
-0.4880000E+01  0.2683128E-28
-0.4860000E+01  0.7392994E-28
-0.4840000E+01  0.9242242E-28
-0.4820000E+01  0.8787484E-28
-0.4800000E+01  0.5336021E-28
-0.4780000E+01  0.6931000E-29
-0.4760000E+01 -0.4724501E-28
-0.4740000E+01 -0.8973877E-28
-0.4720000E+01 -0.1281938E-27
-0.4700000E+01 -0.1383418E-27
-0.4680000E+01 -0.1229827E-27
-0.4660000E+01 -0.8630545E-28
-0.4640000E+01 -0.3042209E-28
-0.4620000E+01  0.4810880E-28
-0.4600000E+01  0.1419738E-27
-0.4580000E+01  0.2601739E-27
-0.4560000E+01  0.3950621E-27
-0.4540000E+01  0.5188806E-27
-0.4520000E+01  0.6312914E-27
-0.4500000E+01  0.7212166E-27
-0.4480000E+01  0.7533022E-27
-0.4460000E+01  0.7324519E-27
-0.4440000E+01  0.6732883E-27
-0.4420000E+01  0.5536629E-27
-0.4400000E+01  0.3979129E-27
-0.4380000E+01  0.1998399E-27
-0.4360000E+01 -0.3149820E-28
-0.4340000E+01 -0.2717859E-27
-0.4320000E+01 -0.5161528E-27
-0.4300000E+01 -0.7458643E-27
-0.4280000E+01 -0.9699596E-27
-0.4260000E+01 -0.1141979E-26
-0.4240000E+01 -0.1230744E-26
-0.4220000E+01 -0.1246716E-26
-0.4200000E+01 -0.1206602E-26
-0.4180000E+01 -0.1060490E-26
-0.4160000E+01 -0.8028675E-27
-0.4140000E+01 -0.4497181E-27
-0.4120000E+01 -0.3852207E-28
-0.4100000E+01  0.3689737E-27
-0.4080000E+01  0.7374037E-27
-0.4060000E+01  0.1032113E-26
-0.4040000E+01  0.1210134E-26
-0.4020000E+01  0.1283329E-26
-0.4000000E+01  0.1247605E-26
-0.3980000E+01  0.1082906E-26
-0.3960000E+01  0.8364787E-27
-0.3940000E+01  0.5298791E-27
-0.3920000E+01  0.1783999E-27
-0.3900000E+01 -0.1901957E-27
-0.3880000E+01 -0.5814732E-27
-0.3860000E+01 -0.9649316E-27
-0.3840000E+01 -0.1264292E-26
-0.3820000E+01 -0.1468509E-26
-0.3800000E+01 -0.1584589E-26
-0.3780000E+01 -0.1572350E-26
-0.3760000E+01 -0.1444345E-26
-0.3740000E+01 -0.1204788E-26
-0.3720000E+01 -0.8703636E-27
-0.3700000E+01 -0.4723050E-27
-0.3680000E+01 -0.3280554E-28
-0.3660000E+01  0.3808616E-27
-0.3640000E+01  0.7465392E-27
-0.3620000E+01  0.1026818E-26
-0.3600000E+01  0.1185678E-26
-0.3580000E+01  0.1200978E-26
-0.3560000E+01  0.1081102E-26
-0.3540000E+01  0.8663458E-27
-0.3520000E+01  0.5775607E-27
-0.3500000E+01  0.2147670E-27
-0.3480000E+01 -0.1859539E-27
-0.3460000E+01 -0.5732704E-27
-0.3440000E+01 -0.8986454E-27
-0.3420000E+01 -0.1148247E-26
-0.3400000E+01 -0.1279103E-26
-0.3380000E+01 -0.1275996E-26
-0.3360000E+01 -0.1136885E-26
-0.3340000E+01 -0.8631885E-27
-0.3320000E+01 -0.4889283E-27
-0.3300000E+01 -0.7239781E-28
-0.3280000E+01  0.3850180E-27
-0.3260000E+01  0.8375378E-27
-0.3240000E+01  0.1216493E-26
-0.3220000E+01  0.1435185E-26
-0.3200000E+01  0.1481166E-26
-0.3180000E+01  0.1301743E-26
-0.3160000E+01  0.9233223E-27
-0.3140000E+01  0.4597348E-27
-0.3120000E+01 -0.6263178E-28
-0.3100000E+01 -0.6007451E-27
-0.3080000E+01 -0.1085213E-26
-0.3060000E+01 -0.1473014E-26
-0.3040000E+01 -0.1719744E-26
-0.3020000E+01 -0.1819858E-26
-0.3000000E+01 -0.1748387E-26
-0.2980000E+01 -0.1478971E-26
-0.2960000E+01 -0.1031048E-26
-0.2940000E+01 -0.4733221E-27
-0.2920000E+01  0.9983560E-28
-0.2900000E+01  0.6488778E-27
-0.2880000E+01  0.1107197E-26
-0.2860000E+01  0.1398476E-26
-0.2840000E+01  0.1490802E-26
-0.2820000E+01  0.1352263E-26
-0.2800000E+01  0.1017554E-26
-0.2780000E+01  0.4866698E-27
-0.2760000E+01 -0.1099427E-27
-0.2740000E+01 -0.7459184E-27
-0.2720000E+01 -0.1315790E-26
-0.2700000E+01 -0.1795966E-26
-0.2680000E+01 -0.2143425E-26
-0.2660000E+01 -0.2334574E-26
-0.2640000E+01 -0.2354143E-26
-0.2620000E+01 -0.2157716E-26
-0.2600000E+01 -0.1789718E-26
-0.2580000E+01 -0.1320960E-26
-0.2560000E+01 -0.7875772E-27
-0.2540000E+01 -0.1896328E-27
-0.2520000E+01  0.4131268E-27
-0.2500000E+01  0.9609562E-27
-0.2480000E+01  0.1446154E-26
-0.2460000E+01  0.1840214E-26
-0.2440000E+01  0.2090361E-26
-0.2420000E+01  0.2152867E-26
-0.2400000E+01  0.2062085E-26
-0.2380000E+01  0.1795492E-26
-0.2360000E+01  0.1385050E-26
-0.2340000E+01  0.8238753E-27
-0.2320000E+01  0.1612940E-27
-0.2300000E+01 -0.5242240E-27
-0.2280000E+01 -0.1224294E-26
-0.2260000E+01 -0.1859759E-26
-0.2240000E+01 -0.2391025E-26
-0.2220000E+01 -0.2802103E-26
-0.2200000E+01 -0.3078410E-26
-0.2180000E+01 -0.3187336E-26
-0.2160000E+01 -0.3144168E-26
-0.2140000E+01 -0.2982247E-26
-0.2120000E+01 -0.2714102E-26
-0.2100000E+01 -0.2313403E-26
-0.2080000E+01 -0.1848190E-26
-0.2060000E+01 -0.1361516E-26
-0.2040000E+01 -0.8797782E-27
-0.2020000E+01 -0.4099357E-27
-0.2000000E+01  0.4868923E-28
-0.1980000E+01  0.5064977E-27
-0.1960000E+01  0.9648822E-27
-0.1940000E+01  0.1384311E-26
-0.1920000E+01  0.1799506E-26
-0.1900000E+01  0.2205648E-26
-0.1880000E+01  0.2627061E-26
-0.1860000E+01  0.3027702E-26
-0.1840000E+01  0.3352789E-26
-0.1820000E+01  0.3632885E-26
-0.1800000E+01  0.3842344E-26
-0.1780000E+01  0.3949972E-26
-0.1760000E+01  0.3915546E-26
-0.1740000E+01  0.3771006E-26
-0.1720000E+01  0.3492771E-26
-0.1700000E+01  0.3071132E-26
-0.1680000E+01  0.2528287E-26
-0.1660000E+01  0.1843405E-26
-0.1640000E+01  0.1065040E-26
-0.1620000E+01  0.1973364E-27
-0.1600000E+01 -0.7118529E-27
-0.1580000E+01 -0.1588305E-26
-0.1560000E+01 -0.2420946E-26
-0.1540000E+01 -0.3139718E-26
-0.1520000E+01 -0.3693993E-26
-0.1500000E+01 -0.4048403E-26
-0.1480000E+01 -0.4153002E-26
-0.1460000E+01 -0.4012641E-26
-0.1440000E+01 -0.3639796E-26
-0.1420000E+01 -0.3033050E-26
-0.1400000E+01 -0.2247187E-26
-0.1380000E+01 -0.1334897E-26
-0.1360000E+01 -0.3454037E-27
-0.1340000E+01  0.6436214E-27
-0.1320000E+01  0.1557280E-26
-0.1300000E+01  0.2326224E-26
-0.1280000E+01  0.2894971E-26
-0.1260000E+01  0.3284358E-26
-0.1240000E+01  0.3477734E-26
-0.1220000E+01  0.3494517E-26
-0.1200000E+01  0.3315251E-26
-0.1180000E+01  0.3046750E-26
-0.1160000E+01  0.2723662E-26
-0.1140000E+01  0.2395897E-26
-0.1120000E+01  0.2125165E-26
-0.1100000E+01  0.1936403E-26
-0.1080000E+01  0.1862881E-26
-0.1060000E+01  0.1929555E-26
-0.1040000E+01  0.2078119E-26
-0.1020000E+01  0.2222529E-26
-0.1000000E+01  0.2335040E-26
-0.9800000E+00  0.2368495E-26
-0.9600000E+00  0.2251462E-26
-0.9400000E+00  0.1911133E-26
-0.9200000E+00  0.1320495E-26
-0.9000000E+00  0.4934784E-27
-0.8800000E+00 -0.5393451E-27
-0.8600000E+00 -0.1747411E-26
-0.8400000E+00 -0.3046039E-26
-0.8200000E+00 -0.4424107E-26
-0.8000000E+00 -0.5699811E-26
-0.7800000E+00 -0.6794050E-26
-0.7600000E+00 -0.7634679E-26
-0.7400000E+00 -0.8082948E-26
-0.7200000E+00 -0.8152778E-26
-0.7000000E+00 -0.7763723E-26
-0.6800000E+00 -0.6904722E-26
-0.6600000E+00 -0.5670171E-26
-0.6400000E+00 -0.4118378E-26
-0.6200000E+00 -0.2345102E-26
-0.6000000E+00 -0.4454004E-27
-0.5800000E+00  0.1395478E-26
-0.5600000E+00  0.3094291E-26
-0.5400000E+00  0.4491477E-26
-0.5200000E+00  0.5580138E-26
-0.5000000E+00  0.6270117E-26
-0.4800000E+00  0.6539259E-26
-0.4600000E+00  0.6481981E-26
-0.4400000E+00  0.6110812E-26
-0.4200000E+00  0.5552067E-26
-0.4000000E+00  0.4840452E-26
-0.3800000E+00  0.4075884E-26
-0.3600000E+00  0.3356882E-26
-0.3400000E+00  0.2734771E-26
-0.3200000E+00  0.2213685E-26
-0.3000000E+00  0.1782488E-26
-0.2800000E+00  0.1432813E-26
-0.2600000E+00  0.1167398E-26
-0.2400000E+00  0.1002860E-26
-0.2200000E+00  0.8559000E-27
-0.2000000E+00  0.7292757E-27
-0.1800000E+00  0.5577615E-27
-0.1600000E+00  0.3566353E-27
-0.1400000E+00  0.1703327E-27
-0.1200000E+00 -0.4691050E-28
-0.1000000E+00 -0.2784022E-27
-0.8000000E-01 -0.4824727E-27
-0.6000000E-01 -0.6493736E-27
-0.4000000E-01 -0.7735257E-27
-0.2000000E-01 -0.8812734E-27
 0.1249001E-15 -0.1008687E-26
 0.2000000E-01 -0.1116905E-26
 0.4000000E-01 -0.1229528E-26
 0.6000000E-01 -0.1407637E-26
 0.8000000E-01 -0.1677629E-26
 0.1000000E+00 -0.1977089E-26
 0.1200000E+00 -0.2304659E-26
 0.1400000E+00 -0.2668687E-26
 0.1600000E+00 -0.2998413E-26
 0.1800000E+00 -0.3274414E-26
 0.2000000E+00 -0.3505017E-26
 0.2200000E+00 -0.3565317E-26
 0.2400000E+00 -0.3469183E-26
 0.2600000E+00 -0.3177750E-26
 0.2800000E+00 -0.2675740E-26
 0.3000000E+00 -0.1949262E-26
 0.3200000E+00 -0.9830384E-27
 0.3400000E+00  0.2493071E-27
 0.3600000E+00  0.1695041E-26
 0.3800000E+00  0.3280609E-26
 0.4000000E+00  0.4900528E-26
 0.4200000E+00  0.6460417E-26
 0.4400000E+00  0.7895037E-26
 0.4600000E+00  0.9141938E-26
 0.4800000E+00  0.9992954E-26
 0.5000000E+00  0.1037316E-25
 0.5200000E+00  0.1018958E-25
 0.5400000E+00  0.9357577E-26
 0.5600000E+00  0.7771703E-26
 0.5800000E+00  0.5513849E-26
 0.6000000E+00  0.2729754E-26
 0.6200000E+00 -0.3959764E-27
 0.6400000E+00 -0.3634330E-26
 0.6600000E+00 -0.6732701E-26
 0.6800000E+00 -0.9492619E-26
 0.7000000E+00 -0.1167121E-25
 0.7200000E+00 -0.1312693E-25
 0.7400000E+00 -0.1382925E-25
 0.7600000E+00 -0.1371992E-25
 0.7800000E+00 -0.1281700E-25
 0.8000000E+00 -0.1115797E-25
 0.8200000E+00 -0.8921870E-26
 0.8400000E+00 -0.6323834E-26
 0.8600000E+00 -0.3504032E-26
 0.8800000E+00 -0.7219831E-27
 0.9000000E+00  0.1843291E-26
 0.9200000E+00  0.4000288E-26
 0.9400000E+00  0.5608867E-26
 0.9600000E+00  0.6503912E-26
 0.9800000E+00  0.6691008E-26
 0.1000000E+01  0.6227086E-26
 0.1020000E+01  0.5209318E-26
 0.1040000E+01  0.3827845E-26
 0.1060000E+01  0.2281128E-26
 0.1080000E+01  0.8272907E-27
 0.1100000E+01 -0.3657486E-27
 0.1120000E+01 -0.1180042E-26
 0.1140000E+01 -0.1471279E-26
 0.1160000E+01 -0.1229771E-26
 0.1180000E+01 -0.4971815E-27
 0.1200000E+01  0.7472727E-27
 0.1220000E+01  0.2343964E-26
 0.1240000E+01  0.4041678E-26
 0.1260000E+01  0.5680806E-26
 0.1280000E+01  0.7019871E-26
 0.1300000E+01  0.7897898E-26
 0.1320000E+01  0.8233025E-26
 0.1340000E+01  0.7923967E-26
 0.1360000E+01  0.6999894E-26
 0.1380000E+01  0.5441407E-26
 0.1400000E+01  0.3251311E-26
 0.1420000E+01  0.6017277E-27
 0.1440000E+01 -0.2267225E-26
 0.1460000E+01 -0.5152908E-26
 0.1480000E+01 -0.7833262E-26
 0.1500000E+01 -0.9973837E-26
 0.1520000E+01 -0.1140673E-25
 0.1540000E+01 -0.1198347E-25
 0.1560000E+01 -0.1163750E-25
 0.1580000E+01 -0.1036886E-25
 0.1600000E+01 -0.8395474E-26
 0.1620000E+01 -0.5832573E-26
 0.1640000E+01 -0.2913345E-26
 0.1660000E+01  0.1082162E-27
 0.1680000E+01  0.3073882E-26
 0.1700000E+01  0.5731070E-26
 0.1720000E+01  0.7845256E-26
 0.1740000E+01  0.9322106E-26
 0.1760000E+01  0.1013530E-25
 0.1780000E+01  0.1020995E-25
 0.1800000E+01  0.9664093E-26
 0.1820000E+01  0.8575493E-26
 0.1840000E+01  0.7099630E-26
 0.1860000E+01  0.5419723E-26
 0.1880000E+01  0.3624617E-26
 0.1900000E+01  0.1842008E-26
 0.1920000E+01  0.2439869E-27
 0.1940000E+01 -0.1159735E-26
 0.1960000E+01 -0.2226234E-26
 0.1980000E+01 -0.2918071E-26
 0.2000000E+01 -0.3271368E-26
 0.2020000E+01 -0.3319481E-26
 0.2040000E+01 -0.3145717E-26
 0.2060000E+01 -0.2779250E-26
 0.2080000E+01 -0.2314470E-26
 0.2100000E+01 -0.1786075E-26
 0.2120000E+01 -0.1338389E-26
 0.2140000E+01 -0.1049110E-26
 0.2160000E+01 -0.9362519E-27
 0.2180000E+01 -0.9664784E-27
 0.2200000E+01 -0.1125875E-26
 0.2220000E+01 -0.1371382E-26
 0.2240000E+01 -0.1675208E-26
 0.2260000E+01 -0.2005405E-26
 0.2280000E+01 -0.2253712E-26
 0.2300000E+01 -0.2442330E-26
 0.2320000E+01 -0.2501883E-26
 0.2340000E+01 -0.2403255E-26
 0.2360000E+01 -0.2161746E-26
 0.2380000E+01 -0.1785712E-26
 0.2400000E+01 -0.1352902E-26
 0.2420000E+01 -0.9965696E-27
 0.2440000E+01 -0.6848205E-27
 0.2460000E+01 -0.5051018E-27
 0.2480000E+01 -0.4935080E-27
 0.2500000E+01 -0.5445724E-27
 0.2520000E+01 -0.7040560E-27
 0.2540000E+01 -0.8955560E-27
 0.2560000E+01 -0.1050969E-26
 0.2580000E+01 -0.1111887E-26
 0.2600000E+01 -0.9463442E-27
 0.2620000E+01 -0.4903852E-27
 0.2640000E+01  0.1950250E-27
 0.2660000E+01  0.1132159E-26
 0.2680000E+01  0.2318280E-26
 0.2700000E+01  0.3606291E-26
 0.2720000E+01  0.4835184E-26
 0.2740000E+01  0.5824489E-26
 0.2760000E+01  0.6615753E-26
 0.2780000E+01  0.7131154E-26
 0.2800000E+01  0.7299797E-26
 0.2820000E+01  0.7054949E-26
 0.2840000E+01  0.6379852E-26
 0.2860000E+01  0.5264707E-26
 0.2880000E+01  0.3874606E-26
 0.2900000E+01  0.2294180E-26
 0.2920000E+01  0.5234389E-27
 0.2940000E+01 -0.1277984E-26
 0.2960000E+01 -0.3022595E-26
 0.2980000E+01 -0.4520191E-26
 0.3000000E+01 -0.5712386E-26
 0.3020000E+01 -0.6557442E-26
 0.3040000E+01 -0.6951173E-26
 0.3060000E+01 -0.6874060E-26
 0.3080000E+01 -0.6406529E-26
 0.3100000E+01 -0.5695642E-26
 0.3120000E+01 -0.4708089E-26
 0.3140000E+01 -0.3546588E-26
 0.3160000E+01 -0.2197301E-26
 0.3180000E+01 -0.8184832E-27
 0.3200000E+01  0.4454834E-27
 0.3220000E+01  0.1570952E-26
 0.3240000E+01  0.2326110E-26
 0.3260000E+01  0.2755322E-26
 0.3280000E+01  0.2744752E-26
 0.3300000E+01  0.2279107E-26
 0.3320000E+01  0.1420830E-26
 0.3340000E+01  0.2004652E-27
 0.3360000E+01 -0.1222367E-26
 0.3380000E+01 -0.2653339E-26
 0.3400000E+01 -0.3941143E-26
 0.3420000E+01 -0.4995529E-26
 0.3440000E+01 -0.5608300E-26
 0.3460000E+01 -0.5794694E-26
 0.3480000E+01 -0.5597720E-26
 0.3500000E+01 -0.4929941E-26
 0.3520000E+01 -0.3799690E-26
 0.3540000E+01 -0.2308290E-26
 0.3560000E+01 -0.4751943E-27
 0.3580000E+01  0.1559401E-26
 0.3600000E+01  0.3588682E-26
 0.3620000E+01  0.5394732E-26
 0.3640000E+01  0.6863728E-26
 0.3660000E+01  0.7798595E-26
 0.3680000E+01  0.8070269E-26
 0.3700000E+01  0.7675984E-26
 0.3720000E+01  0.6601878E-26
 0.3740000E+01  0.4971482E-26
 0.3760000E+01  0.2816730E-26
 0.3780000E+01  0.3888206E-27
 0.3800000E+01 -0.2163748E-26
 0.3820000E+01 -0.4578684E-26
 0.3840000E+01 -0.6618683E-26
 0.3860000E+01 -0.8021470E-26
 0.3880000E+01 -0.8766250E-26
 0.3900000E+01 -0.8773947E-26
 0.3920000E+01 -0.8048759E-26
 0.3940000E+01 -0.6717007E-26
 0.3960000E+01 -0.5057655E-26
 0.3980000E+01 -0.3153977E-26
 0.4000000E+01 -0.1232176E-26
 0.4020000E+01  0.6050736E-27
 0.4040000E+01  0.2113553E-26
 0.4060000E+01  0.3153134E-26
 0.4080000E+01  0.3643363E-26
 0.4100000E+01  0.3499621E-26
 0.4120000E+01  0.2816308E-26
 0.4140000E+01  0.1773856E-26
 0.4160000E+01  0.5082753E-27
 0.4180000E+01 -0.7292527E-27
 0.4200000E+01 -0.1786098E-26
 0.4220000E+01 -0.2262622E-26
 0.4240000E+01 -0.2086716E-26
 0.4260000E+01 -0.1204323E-26
 0.4280000E+01  0.2984521E-27
 0.4300000E+01  0.2331354E-26
 0.4320000E+01  0.4683400E-26
 0.4340000E+01  0.7145017E-26
 0.4360000E+01  0.9446971E-26
 0.4380000E+01  0.1135197E-25
 0.4400000E+01  0.1269073E-25
 0.4420000E+01  0.1321766E-25
 0.4440000E+01  0.1296197E-25
 0.4460000E+01  0.1178912E-25
 0.4480000E+01  0.9747789E-26
 0.4500000E+01  0.7018462E-26
 0.4520000E+01  0.3810769E-26
 0.4540000E+01  0.3468114E-27
 0.4560000E+01 -0.3037544E-26
 0.4580000E+01 -0.6109155E-26
 0.4600000E+01 -0.8584942E-26
 0.4620000E+01 -0.1032895E-25
 0.4640000E+01 -0.1131350E-25
 0.4660000E+01 -0.1146788E-25
 0.4680000E+01 -0.1084630E-25
 0.4700000E+01 -0.9619556E-26
 0.4720000E+01 -0.7945915E-26
 0.4740000E+01 -0.6047491E-26
 0.4760000E+01 -0.4167184E-26
 0.4780000E+01 -0.2479869E-26
 0.4800000E+01 -0.1233948E-26
 0.4820000E+01 -0.5862079E-27
 0.4840000E+01 -0.5546404E-27
 0.4860000E+01 -0.1125306E-26
 0.4880000E+01 -0.2220424E-26
 0.4900000E+01 -0.3665074E-26
 0.4920000E+01 -0.5282949E-26
 0.4940000E+01 -0.6767299E-26
 0.4960000E+01 -0.7918248E-26
 0.4980000E+01 -0.8578962E-26
 0.5000000E+01 -0.8458010E-26
 0.5020000E+01 -0.7422193E-26
 0.5040000E+01 -0.5422985E-26
 0.5060000E+01 -0.2617269E-26
 0.5080000E+01  0.7006862E-27
 0.5100000E+01  0.4281031E-26
 0.5120000E+01  0.7800372E-26
 0.5140000E+01  0.1095615E-25
 0.5160000E+01  0.1352770E-25
 0.5180000E+01  0.1528465E-25
 0.5200000E+01  0.1600221E-25
 0.5220000E+01  0.1558740E-25
 0.5240000E+01  0.1398755E-25
 0.5260000E+01  0.1148162E-25
 0.5280000E+01  0.8148770E-26
 0.5300000E+01  0.4240231E-26
 0.5320000E+01 -0.1776271E-28
 0.5340000E+01 -0.4361518E-26
 0.5360000E+01 -0.8369152E-26
 0.5380000E+01 -0.1170900E-25
 0.5400000E+01 -0.1422984E-25
 0.5420000E+01 -0.1573880E-25
 0.5440000E+01 -0.1625675E-25
 0.5460000E+01 -0.1573378E-25
 0.5480000E+01 -0.1419907E-25
 0.5500000E+01 -0.1173456E-25
 0.5520000E+01 -0.8558156E-26
 0.5540000E+01 -0.5070947E-26
 0.5560000E+01 -0.1586573E-26
 0.5580000E+01  0.1622977E-26
 0.5600000E+01  0.4095606E-26
 0.5620000E+01  0.5759191E-26
 0.5640000E+01  0.6491653E-26
 0.5660000E+01  0.6272222E-26
 0.5680000E+01  0.5281341E-26
 0.5700000E+01  0.3660586E-26
 0.5720000E+01  0.1773573E-26
 0.5740000E+01  0.5714721E-30
 0.5760000E+01 -0.1339223E-26
 0.5780000E+01 -0.1926621E-26
 0.5800000E+01 -0.1613139E-26
 0.5820000E+01 -0.3335662E-27
 0.5840000E+01  0.1943990E-26
 0.5860000E+01  0.4968314E-26
 0.5880000E+01  0.8577010E-26
 0.5900000E+01  0.1230932E-25
 0.5920000E+01  0.1586825E-25
 0.5940000E+01  0.1880000E-25
 0.5960000E+01  0.2088530E-25
 0.5980000E+01  0.2182440E-25
 0.6000000E+01  0.2140081E-25
 0.6020000E+01  0.1961453E-25
 0.6040000E+01  0.1641007E-25
 0.6060000E+01  0.1201084E-25
 0.6080000E+01  0.6630571E-26
 0.6100000E+01  0.5384605E-27
 0.6120000E+01 -0.5820035E-26
 0.6140000E+01 -0.1205914E-25
 0.6160000E+01 -0.1756135E-25
 0.6180000E+01 -0.2194920E-25
 0.6200000E+01 -0.2488550E-25
 0.6220000E+01 -0.2636196E-25
 0.6240000E+01 -0.2626061E-25
 0.6260000E+01 -0.2472022E-25
 0.6280000E+01 -0.2196145E-25
 0.6300000E+01 -0.1838116E-25
 0.6320000E+01 -0.1429991E-25
 0.6340000E+01 -0.1013816E-25
 0.6360000E+01 -0.6080444E-26
 0.6380000E+01 -0.2520872E-26
 0.6400000E+01  0.4698060E-27
 0.6420000E+01  0.2827764E-26
 0.6440000E+01  0.4404504E-26
 0.6460000E+01  0.5216659E-26
 0.6480000E+01  0.5402972E-26
 0.6500000E+01  0.5214577E-26
 0.6520000E+01  0.4903994E-26
 0.6540000E+01  0.4535008E-26
 0.6560000E+01  0.4267163E-26
 0.6580000E+01  0.4282214E-26
 0.6600000E+01  0.4534333E-26
 0.6620000E+01  0.5011012E-26
 0.6640000E+01  0.5688654E-26
 0.6660000E+01  0.6436816E-26
 0.6680000E+01  0.7194460E-26
 0.6700000E+01  0.7821453E-26
 0.6720000E+01  0.8195711E-26
 0.6740000E+01  0.8131311E-26
 0.6760000E+01  0.7599147E-26
 0.6780000E+01  0.6543737E-26
 0.6800000E+01  0.5167709E-26
 0.6820000E+01  0.3496044E-26
 0.6840000E+01  0.1587015E-26
 0.6860000E+01 -0.4011932E-27
 0.6880000E+01 -0.2293752E-26
 0.6900000E+01 -0.3796493E-26
 0.6920000E+01 -0.4838687E-26
 0.6940000E+01 -0.5384300E-26
 0.6960000E+01 -0.5377870E-26
 0.6980000E+01 -0.4892995E-26
 0.7000000E+01 -0.4011575E-26
 0.7020000E+01 -0.2912636E-26
 0.7040000E+01 -0.1836243E-26
 0.7060000E+01 -0.1036320E-26
 0.7080000E+01 -0.6904522E-27
 0.7100000E+01 -0.8596417E-27
 0.7120000E+01 -0.1656240E-26
 0.7140000E+01 -0.3184277E-26
 0.7160000E+01 -0.5415952E-26
 0.7180000E+01 -0.8254085E-26
 0.7200000E+01 -0.1151686E-25
 0.7220000E+01 -0.1486149E-25
 0.7240000E+01 -0.1782726E-25
 0.7260000E+01 -0.2023379E-25
 0.7280000E+01 -0.2169673E-25
 0.7300000E+01 -0.2198440E-25
 0.7320000E+01 -0.2107604E-25
 0.7340000E+01 -0.1878023E-25
 0.7360000E+01 -0.1517891E-25
 0.7380000E+01 -0.1043036E-25
 0.7400000E+01 -0.4741383E-26
 0.7420000E+01  0.1486912E-26
 0.7440000E+01  0.7815288E-26
 0.7460000E+01  0.1384893E-25
 0.7480000E+01  0.1908827E-25
 0.7500000E+01  0.2329605E-25
 0.7520000E+01  0.2605877E-25
 0.7540000E+01  0.2717387E-25
 0.7560000E+01  0.2654150E-25
 0.7580000E+01  0.2419779E-25
 0.7600000E+01  0.2029542E-25
 0.7620000E+01  0.1523548E-25
 0.7640000E+01  0.9312199E-26
 0.7660000E+01  0.3059901E-26
 0.7680000E+01 -0.3052314E-26
 0.7700000E+01 -0.8585878E-26
 0.7720000E+01 -0.1319104E-25
 0.7740000E+01 -0.1662216E-25
 0.7760000E+01 -0.1870435E-25
 0.7780000E+01 -0.1932938E-25
 0.7800000E+01 -0.1861523E-25
 0.7820000E+01 -0.1680199E-25
 0.7840000E+01 -0.1424359E-25
 0.7860000E+01 -0.1117321E-25
 0.7880000E+01 -0.8055778E-26
 0.7900000E+01 -0.5184172E-26
 0.7920000E+01 -0.2824885E-26
 0.7940000E+01 -0.1190288E-26
 0.7960000E+01 -0.2693160E-27
 0.7980000E+01 -0.1050190E-27
 0.8000000E+01 -0.5447629E-27
 0.8020000E+01 -0.1498354E-26
 0.8040000E+01 -0.2667423E-26
 0.8060000E+01 -0.3763306E-26
 0.8080000E+01 -0.4544516E-26
 0.8100000E+01 -0.4833399E-26
 0.8120000E+01 -0.4375964E-26
 0.8140000E+01 -0.3106954E-26
 0.8160000E+01 -0.1088785E-26
 0.8180000E+01  0.1506489E-26
 0.8200000E+01  0.4433255E-26
 0.8220000E+01  0.7436179E-26
 0.8240000E+01  0.1016277E-25
 0.8260000E+01  0.1225912E-25
 0.8280000E+01  0.1346711E-25
 0.8300000E+01  0.1357576E-25
 0.8320000E+01  0.1254344E-25
 0.8340000E+01  0.1034514E-25
 0.8360000E+01  0.7155692E-26
 0.8380000E+01  0.3217944E-26
 0.8400000E+01 -0.1143390E-26
 0.8420000E+01 -0.5585553E-26
 0.8440000E+01 -0.9797699E-26
 0.8460000E+01 -0.1348147E-25
 0.8480000E+01 -0.1629409E-25
 0.8500000E+01 -0.1812175E-25
 0.8520000E+01 -0.1876324E-25
 0.8540000E+01 -0.1823103E-25
 0.8560000E+01 -0.1660978E-25
 0.8580000E+01 -0.1411875E-25
 0.8600000E+01 -0.1087867E-25
 0.8620000E+01 -0.7250372E-26
 0.8640000E+01 -0.3533623E-26
 0.8660000E+01 -0.2542242E-28
 0.8680000E+01  0.3122943E-26
 0.8700000E+01  0.5708834E-26
 0.8720000E+01  0.7650342E-26
 0.8740000E+01  0.9057074E-26
 0.8760000E+01  0.9990063E-26
 0.8780000E+01  0.1051104E-25
 0.8800000E+01  0.1066164E-25
 0.8820000E+01  0.1059448E-25
 0.8840000E+01  0.1039492E-25
 0.8860000E+01  0.1022810E-25
 0.8880000E+01  0.1014051E-25
 0.8900000E+01  0.1005929E-25
 0.8920000E+01  0.9986531E-26
 0.8940000E+01  0.9927788E-26
 0.8960000E+01  0.9804655E-26
 0.8980000E+01  0.9499173E-26
 0.9000000E+01  0.8980114E-26
 0.9020000E+01  0.7968529E-26
 0.9040000E+01  0.6429709E-26
 0.9060000E+01  0.4329640E-26
 0.9080000E+01  0.1909083E-26
 0.9100000E+01 -0.8569587E-27
 0.9120000E+01 -0.3906050E-26
 0.9140000E+01 -0.7004365E-26
 0.9160000E+01 -0.9879910E-26
 0.9180000E+01 -0.1232800E-25
 0.9200000E+01 -0.1412590E-25
 0.9220000E+01 -0.1517024E-25
 0.9240000E+01 -0.1538677E-25
 0.9260000E+01 -0.1470404E-25
 0.9280000E+01 -0.1324556E-25
 0.9300000E+01 -0.1102524E-25
 0.9320000E+01 -0.8295649E-26
 0.9340000E+01 -0.5311471E-26
 0.9360000E+01 -0.2294071E-26
 0.9380000E+01  0.5802860E-27
 0.9400000E+01  0.3062478E-26
 0.9420000E+01  0.5078250E-26
 0.9440000E+01  0.6379875E-26
 0.9460000E+01  0.6938901E-26
 0.9480000E+01  0.6862185E-26
 0.9500000E+01  0.6228137E-26
 0.9520000E+01  0.5210925E-26
 0.9540000E+01  0.3997205E-26
 0.9560000E+01  0.2925601E-26
 0.9580000E+01  0.2306986E-26
 0.9600000E+01  0.2248928E-26
 0.9620000E+01  0.2852746E-26
 0.9640000E+01  0.4188534E-26
 0.9660000E+01  0.6232703E-26
 0.9680000E+01  0.8643859E-26
 0.9700000E+01  0.1104243E-25
 0.9720000E+01  0.1314668E-25
 0.9740000E+01  0.1463810E-25
 0.9760000E+01  0.1532584E-25
 0.9780000E+01  0.1492746E-25
 0.9800000E+01  0.1336659E-25
 0.9820000E+01  0.1055856E-25
 0.9840000E+01  0.6681665E-26
 0.9860000E+01  0.1937110E-26
 0.9880000E+01 -0.3298693E-26
 0.9900000E+01 -0.8443587E-26
 0.9920000E+01 -0.1299174E-25
 0.9940000E+01 -0.1649839E-25
 0.9960000E+01 -0.1854477E-25
 0.9980000E+01 -0.1893521E-25
 0.1000000E+02 -0.1763953E-25
 0.1002000E+02 -0.1474031E-25
 0.1004000E+02 -0.1047763E-25
 0.1006000E+02 -0.5173114E-26
 0.1008000E+02  0.7027816E-27
 0.1010000E+02  0.6575858E-26
 0.1012000E+02  0.1174840E-25
 0.1014000E+02  0.1577076E-25
 0.1016000E+02  0.1826823E-25
 0.1018000E+02  0.1897814E-25
 0.1020000E+02  0.1787621E-25
 0.1022000E+02  0.1521951E-25
 0.1024000E+02  0.1135362E-25
 0.1026000E+02  0.6745539E-26
 0.1028000E+02  0.1916041E-26
 0.1030000E+02 -0.2495085E-26
 0.1032000E+02 -0.5946245E-26
 0.1034000E+02 -0.7991951E-26
 0.1036000E+02 -0.8381008E-26
 0.1038000E+02 -0.7075602E-26
 0.1040000E+02 -0.4259277E-26
 0.1042000E+02 -0.3109177E-27
 0.1044000E+02  0.4312176E-26
 0.1046000E+02  0.8988243E-26
 0.1048000E+02  0.1316681E-25
 0.1050000E+02  0.1610746E-25
 0.1052000E+02  0.1725503E-25
 0.1054000E+02  0.1624389E-25
 0.1056000E+02  0.1293029E-25
 0.1058000E+02  0.7445972E-26
 0.1060000E+02  0.1787926E-27
 0.1062000E+02 -0.8315498E-26
 0.1064000E+02 -0.1733347E-25
 0.1066000E+02 -0.2618952E-25
 0.1068000E+02 -0.3406665E-25
 0.1070000E+02 -0.4036997E-25
 0.1072000E+02 -0.4450038E-25
 0.1074000E+02 -0.4610658E-25
 0.1076000E+02 -0.4494625E-25
 0.1078000E+02 -0.4115495E-25
 0.1080000E+02 -0.3500657E-25
 0.1082000E+02 -0.2696630E-25
 0.1084000E+02 -0.1766974E-25
 0.1086000E+02 -0.7974830E-26
 0.1088000E+02  0.1334655E-26
 0.1090000E+02  0.9500832E-26
 0.1092000E+02  0.1596173E-25
 0.1094000E+02  0.2032552E-25
 0.1096000E+02  0.2243959E-25
 0.1098000E+02  0.2234381E-25
 0.1100000E+02  0.2041128E-25
 0.1102000E+02  0.1700177E-25
 0.1104000E+02  0.1265909E-25
 0.1106000E+02  0.8018157E-26
 0.1108000E+02  0.3603203E-26
 0.1110000E+02 -0.1513866E-27
 0.1112000E+02 -0.2868814E-26
 0.1114000E+02 -0.4324244E-26
 0.1116000E+02 -0.4497542E-26
 0.1118000E+02 -0.3601210E-26
 0.1120000E+02 -0.1911768E-26
 0.1122000E+02  0.2167116E-27
 0.1124000E+02  0.2309235E-26
 0.1126000E+02  0.4068438E-26
 0.1128000E+02  0.5099111E-26
 0.1130000E+02  0.5145512E-26
 0.1132000E+02  0.4088249E-26
 0.1134000E+02  0.1980015E-26
 0.1136000E+02 -0.9113853E-27
 0.1138000E+02 -0.4288995E-26
 0.1140000E+02 -0.7789236E-26
 0.1142000E+02 -0.1094721E-25
 0.1144000E+02 -0.1333549E-25
 0.1146000E+02 -0.1456341E-25
 0.1148000E+02 -0.1436865E-25
 0.1150000E+02 -0.1257566E-25
 0.1152000E+02 -0.9213550E-26
 0.1154000E+02 -0.4459942E-26
 0.1156000E+02  0.1358356E-26
 0.1158000E+02  0.7796221E-26
 0.1160000E+02  0.1437834E-25
 0.1162000E+02  0.2053258E-25
 0.1164000E+02  0.2573990E-25
 0.1166000E+02  0.2955757E-25
 0.1168000E+02  0.3167469E-25
 0.1170000E+02  0.3194203E-25
 0.1172000E+02  0.3034637E-25
 0.1174000E+02  0.2711041E-25
 0.1176000E+02  0.2250334E-25
 0.1178000E+02  0.1690469E-25
 0.1180000E+02  0.1080850E-25
 0.1182000E+02  0.4776085E-26
 0.1184000E+02 -0.7262651E-27
 0.1186000E+02 -0.5324555E-26
 0.1188000E+02 -0.8751642E-26
 0.1190000E+02 -0.1087153E-25
 0.1192000E+02 -0.1169600E-25
 0.1194000E+02 -0.1141659E-25
 0.1196000E+02 -0.1033651E-25
 0.1198000E+02 -0.8795767E-26
 0.1200000E+02 -0.7154507E-26
 0.1202000E+02 -0.5845029E-26
 0.1204000E+02 -0.5256619E-26
 0.1206000E+02 -0.5513502E-26
 0.1208000E+02 -0.6780843E-26
 0.1210000E+02 -0.8899762E-26
 0.1212000E+02 -0.1165101E-25
 0.1214000E+02 -0.1475705E-25
 0.1216000E+02 -0.1781128E-25
 0.1218000E+02 -0.2036406E-25
 0.1220000E+02 -0.2205043E-25
 0.1222000E+02 -0.2252622E-25
 0.1224000E+02 -0.2151248E-25
 0.1226000E+02 -0.1893429E-25
 0.1228000E+02 -0.1486798E-25
 0.1230000E+02 -0.9499518E-26
 0.1232000E+02 -0.3180028E-26
 0.1234000E+02  0.3563117E-26
 0.1236000E+02  0.1022336E-25
 0.1238000E+02  0.1631216E-25
 0.1240000E+02  0.2135073E-25
 0.1242000E+02  0.2491576E-25
 0.1244000E+02  0.2668110E-25
 0.1246000E+02  0.2654816E-25
 0.1248000E+02  0.2466542E-25
 0.1250000E+02  0.2119938E-25
 0.1252000E+02  0.1657745E-25
 0.1254000E+02  0.1126034E-25
 0.1256000E+02  0.5764307E-26
 0.1258000E+02  0.5237147E-27
 0.1260000E+02 -0.4040940E-26
 0.1262000E+02 -0.7622956E-26
 0.1264000E+02 -0.9979468E-26
 0.1266000E+02 -0.1107716E-25
 0.1268000E+02 -0.1098404E-25
 0.1270000E+02 -0.9976277E-26
 0.1272000E+02 -0.8384161E-26
 0.1274000E+02 -0.6635143E-26
 0.1276000E+02 -0.5152490E-26
 0.1278000E+02 -0.4326145E-26
 0.1280000E+02 -0.4407262E-26
 0.1282000E+02 -0.5610901E-26
 0.1284000E+02 -0.7907873E-26
 0.1286000E+02 -0.1115658E-25
 0.1288000E+02 -0.1503223E-25
 0.1290000E+02 -0.1913097E-25
 0.1292000E+02 -0.2295595E-25
 0.1294000E+02 -0.2596040E-25
 0.1296000E+02 -0.2768637E-25
 0.1298000E+02 -0.2771896E-25
 0.1300000E+02 -0.2581399E-25
 0.1302000E+02 -0.2194098E-25
 0.1304000E+02 -0.1615412E-25
 0.1306000E+02 -0.8758815E-26
 0.1308000E+02 -0.1853304E-27
 0.1310000E+02  0.8958418E-26
 0.1312000E+02  0.1799514E-25
 0.1314000E+02  0.2628641E-25
 0.1316000E+02  0.3320633E-25
 0.1318000E+02  0.3822196E-25
 0.1320000E+02  0.4088507E-25
 0.1322000E+02  0.4107493E-25
 0.1324000E+02  0.3878604E-25
 0.1326000E+02  0.3427375E-25
 0.1328000E+02  0.2797389E-25
 0.1330000E+02  0.2043187E-25
 0.1332000E+02  0.1227637E-25
 0.1334000E+02  0.4211028E-26
 0.1336000E+02 -0.3127174E-26
 0.1338000E+02 -0.9188679E-26
 0.1340000E+02 -0.1357383E-25
 0.1342000E+02 -0.1609391E-25
 0.1344000E+02 -0.1672122E-25
 0.1346000E+02 -0.1563622E-25
 0.1348000E+02 -0.1309292E-25
 0.1350000E+02 -0.9611798E-26
 0.1352000E+02 -0.5732749E-26
 0.1354000E+02 -0.1985951E-26
 0.1356000E+02  0.1120627E-26
 0.1358000E+02  0.3145635E-26
 0.1360000E+02  0.3780957E-26
 0.1362000E+02  0.2946081E-26
 0.1364000E+02  0.7686700E-27
 0.1366000E+02 -0.2570870E-26
 0.1368000E+02 -0.6636775E-26
 0.1370000E+02 -0.1092666E-25
 0.1372000E+02 -0.1497978E-25
 0.1374000E+02 -0.1821882E-25
 0.1376000E+02 -0.2026074E-25
 0.1378000E+02 -0.2082801E-25
 0.1380000E+02 -0.1975409E-25
 0.1382000E+02 -0.1705011E-25
 0.1384000E+02 -0.1282155E-25
 0.1386000E+02 -0.7401492E-26
 0.1388000E+02 -0.1353401E-26
 0.1390000E+02  0.4873056E-26
 0.1392000E+02  0.1071441E-25
 0.1394000E+02  0.1573764E-25
 0.1396000E+02  0.1957912E-25
 0.1398000E+02  0.2189741E-25