-0.6000000E+01  0.0000000E+00
-0.5980000E+01 -0.6889591E-22
-0.5960000E+01 -0.2226787E-21
-0.5940000E+01 -0.4274188E-21
-0.5920000E+01 -0.6877804E-21
-0.5900000E+01 -0.9093998E-21
-0.5880000E+01 -0.1096461E-20
-0.5860000E+01 -0.1214883E-20
-0.5840000E+01 -0.1279028E-20
-0.5820000E+01 -0.1370278E-20
-0.5800000E+01 -0.1506898E-20
-0.5780000E+01 -0.1662918E-20
-0.5760000E+01 -0.1852206E-20
-0.5740000E+01 -0.1993866E-20
-0.5720000E+01 -0.2103681E-20
-0.5700000E+01 -0.2160130E-20
-0.5680000E+01 -0.2186252E-20
-0.5660000E+01 -0.2204757E-20
-0.5640000E+01 -0.2241180E-20
-0.5620000E+01 -0.2279664E-20
-0.5600000E+01 -0.2342593E-20
-0.5580000E+01 -0.2359442E-20
-0.5560000E+01 -0.2352615E-20
-0.5540000E+01 -0.2307172E-20
-0.5520000E+01 -0.2248734E-20
-0.5500000E+01 -0.2157523E-20
-0.5480000E+01 -0.2060925E-20
-0.5460000E+01 -0.1948308E-20
-0.5440000E+01 -0.1846831E-20
-0.5420000E+01 -0.1694246E-20
-0.5400000E+01 -0.1519297E-20
-0.5380000E+01 -0.1315211E-20
-0.5360000E+01 -0.1113388E-20
-0.5340000E+01 -0.9453249E-21
-0.5320000E+01 -0.8378705E-21
-0.5300000E+01 -0.7764964E-21
-0.5280000E+01 -0.7779657E-21
-0.5260000E+01 -0.7684496E-21
-0.5240000E+01 -0.7601703E-21
-0.5220000E+01 -0.7307460E-21
-0.5200000E+01 -0.6947657E-21
-0.5180000E+01 -0.7252307E-21
-0.5160000E+01 -0.8335281E-21
-0.5140000E+01 -0.9915446E-21
-0.5120000E+01 -0.1201839E-20
-0.5100000E+01 -0.1381178E-20
-0.5080000E+01 -0.1532818E-20
-0.5060000E+01 -0.1630684E-20
-0.5040000E+01 -0.1687331E-20
-0.5020000E+01 -0.1724417E-20
-0.5000000E+01 -0.1761279E-20
-0.4980000E+01 -0.1785607E-20
-0.4960000E+01 -0.1818137E-20
-0.4940000E+01 -0.1798497E-20
-0.4920000E+01 -0.1750047E-20
-0.4900000E+01 -0.1666347E-20
-0.4880000E+01 -0.1573582E-20
-0.4860000E+01 -0.1458186E-20
-0.4840000E+01 -0.1345327E-20
-0.4820000E+01 -0.1227712E-20
-0.4800000E+01 -0.1126535E-20
-0.4780000E+01 -0.9821138E-21
-0.4760000E+01 -0.8140551E-21
-0.4740000E+01 -0.6129833E-21
-0.4720000E+01 -0.4000974E-21
-0.4700000E+01 -0.2044523E-21
-0.4680000E+01 -0.4460608E-22
-0.4660000E+01  0.9288256E-22
-0.4640000E+01  0.1952927E-21
-0.4620000E+01  0.3276810E-21
-0.4600000E+01  0.4772580E-21
-0.4580000E+01  0.6565788E-21
-0.4560000E+01  0.8474364E-21
-0.4540000E+01  0.9476718E-21
-0.4520000E+01  0.9437178E-21
-0.4500000E+01  0.8561708E-21
-0.4480000E+01  0.6849357E-21
-0.4460000E+01  0.5078426E-21
-0.4440000E+01  0.3293529E-21
-0.4420000E+01  0.1780038E-21
-0.4400000E+01  0.5281974E-22
-0.4380000E+01 -0.6231395E-22
-0.4360000E+01 -0.1744139E-21
-0.4340000E+01 -0.2673051E-21
-0.4320000E+01 -0.3519895E-21
-0.4300000E+01 -0.3711021E-21
-0.4280000E+01 -0.3426663E-21
-0.4260000E+01 -0.2646876E-21
-0.4240000E+01 -0.1622826E-21
-0.4220000E+01 -0.2903706E-22
-0.4200000E+01  0.1083267E-21
-0.4180000E+01  0.2476725E-21
-0.4160000E+01  0.3663519E-21
-0.4140000E+01  0.5130593E-21
-0.4120000E+01  0.6697814E-21
-0.4100000E+01  0.8421943E-21
-0.4080000E+01  0.1015313E-20
-0.4060000E+01  0.1161936E-20
-0.4040000E+01  0.1273499E-20
-0.4020000E+01  0.1366818E-20
-0.4000000E+01  0.1440292E-20
-0.3980000E+01  0.1558711E-20
-0.3960000E+01  0.1718569E-20
-0.3940000E+01  0.1932267E-20
-0.3920000E+01  0.2186695E-20
-0.3900000E+01  0.2446000E-20
-0.3880000E+01  0.2690650E-20
-0.3860000E+01  0.2919997E-20
-0.3840000E+01  0.3114249E-20
-0.3820000E+01  0.3316911E-20
-0.3800000E+01  0.3507971E-20
-0.3780000E+01  0.3685620E-20
-0.3760000E+01  0.3830396E-20
-0.3740000E+01  0.3907870E-20
-0.3720000E+01  0.3906485E-20
-0.3700000E+01  0.3838504E-20
-0.3680000E+01  0.3704690E-20
-0.3660000E+01  0.3570359E-20
-0.3640000E+01  0.3441932E-20
-0.3620000E+01  0.3341612E-20
-0.3600000E+01  0.3272966E-20
-0.3580000E+01  0.3263033E-20
-0.3560000E+01  0.3307861E-20
-0.3540000E+01  0.3414379E-20
-0.3520000E+01  0.3569366E-20
-0.3500000E+01  0.3812326E-20
-0.3480000E+01  0.4119956E-20
-0.3460000E+01  0.4479122E-20
-0.3440000E+01  0.4859552E-20
-0.3420000E+01  0.5211060E-20
-0.3400000E+01  0.5508117E-20
-0.3380000E+01  0.5745466E-20
-0.3360000E+01  0.5911623E-20
-0.3340000E+01  0.6056558E-20
-0.3320000E+01  0.6180042E-20
-0.3300000E+01  0.6297284E-20
-0.3280000E+01  0.6412107E-20
-0.3260000E+01  0.6432946E-20
-0.3240000E+01  0.6371291E-20
-0.3220000E+01  0.6256007E-20
-0.3200000E+01  0.6107192E-20
-0.3180000E+01  0.5996318E-20
-0.3160000E+01  0.5938174E-20
-0.3140000E+01  0.5950917E-20
-0.3120000E+01  0.6033290E-20
-0.3100000E+01  0.6153095E-20
-0.3080000E+01  0.6295393E-20
-0.3060000E+01  0.6451452E-20
-0.3040000E+01  0.6600767E-20
-0.3020000E+01  0.6771235E-20
-0.3000000E+01  0.6941290E-20
-0.2980000E+01  0.7099277E-20
-0.2960000E+01  0.7227466E-20
-0.2940000E+01  0.7333113E-20
-0.2920000E+01  0.7407382E-20
-0.2900000E+01  0.7454332E-20
-0.2880000E+01  0.7474853E-20
-0.2860000E+01  0.7519524E-20
-0.2840000E+01  0.7593247E-20
-0.2820000E+01  0.7706769E-20
-0.2800000E+01  0.7861608E-20
-0.2780000E+01  0.8031708E-20
-0.2760000E+01  0.8214870E-20
-0.2740000E+01  0.8413789E-20
-0.2720000E+01  0.8623725E-20
-0.2700000E+01  0.8881344E-20
-0.2680000E+01  0.9176229E-20
-0.2660000E+01  0.9499527E-20
-0.2640000E+01  0.9834770E-20
-0.2620000E+01  0.9928775E-20
-0.2600000E+01  0.9783494E-20
-0.2580000E+01  0.9424956E-20
-0.2560000E+01  0.8892562E-20
-0.2540000E+01  0.8279168E-20
-0.2520000E+01  0.7642638E-20
-0.2500000E+01  0.7043365E-20
-0.2480000E+01  0.6532228E-20
-0.2460000E+01  0.6122220E-20
-0.2440000E+01  0.5840696E-20
-0.2420000E+01  0.5702489E-20
-0.2400000E+01  0.5704618E-20
-0.2380000E+01  0.5866652E-20
-0.2360000E+01  0.6155547E-20
-0.2340000E+01  0.6528239E-20
-0.2320000E+01  0.6934088E-20
-0.2300000E+01  0.7336964E-20
-0.2280000E+01  0.7689407E-20
-0.2260000E+01  0.7953156E-20
-0.2240000E+01  0.8102483E-20
-0.2220000E+01  0.8161653E-20
-0.2200000E+01  0.8133795E-20
-0.2180000E+01  0.8034287E-20
-0.2160000E+01  0.7889887E-20
-0.2140000E+01  0.7706357E-20
-0.2120000E+01  0.7523861E-20
-0.2100000E+01  0.7382073E-20
-0.2080000E+01  0.7318487E-20
-0.2060000E+01  0.7394310E-20
-0.2040000E+01  0.7624545E-20
-0.2020000E+01  0.8005492E-20
-0.2000000E+01  0.8519608E-20
-0.1980000E+01  0.9032904E-20
-0.1960000E+01  0.9510124E-20
-0.1940000E+01  0.9913043E-20
-0.1920000E+01  0.1021109E-19
-0.1900000E+01  0.1041039E-19
-0.1880000E+01  0.1049548E-19
-0.1860000E+01  0.1045613E-19
-0.1840000E+01  0.1029711E-19
-0.1820000E+01  0.1000369E-19
-0.1800000E+01  0.9603101E-20
-0.1780000E+01  0.9126650E-20
-0.1760000E+01  0.8617231E-20
-0.1740000E+01  0.8146588E-20
-0.1720000E+01  0.7755820E-20
-0.1700000E+01  0.7472082E-20
-0.1680000E+01  0.7318430E-20
-0.1660000E+01  0.7316289E-20
-0.1640000E+01  0.7463130E-20
-0.1620000E+01  0.7736556E-20
-0.1600000E+01  0.8111014E-20
-0.1580000E+01  0.8577643E-20
-0.1560000E+01  0.9098153E-20
-0.1540000E+01  0.9624956E-20
-0.1520000E+01  0.1012191E-19
-0.1500000E+01  0.1052872E-19
-0.1480000E+01  0.1082901E-19
-0.1460000E+01  0.1101139E-19
-0.1440000E+01  0.1108771E-19
-0.1420000E+01  0.1110365E-19
-0.1400000E+01  0.1109129E-19
-0.1380000E+01  0.1107665E-19
-0.1360000E+01  0.1109579E-19
-0.1340000E+01  0.1114280E-19
-0.1320000E+01  0.1124497E-19
-0.1300000E+01  0.1141093E-19
-0.1280000E+01  0.1165060E-19
-0.1260000E+01  0.1198202E-19
-0.1240000E+01  0.1239252E-19
-0.1220000E+01  0.1284727E-19
-0.1200000E+01  0.1331621E-19
-0.1180000E+01  0.1373357E-19
-0.1160000E+01  0.1406923E-19
-0.1140000E+01  0.1428734E-19
-0.1120000E+01  0.1437533E-19
-0.1100000E+01  0.1434926E-19
-0.1080000E+01  0.1422078E-19
-0.1060000E+01  0.1399906E-19
-0.1040000E+01  0.1371682E-19
-0.1020000E+01  0.1342026E-19
-0.1000000E+01  0.1315196E-19
-0.9800000E+00  0.1293865E-19
-0.9600000E+00  0.1281702E-19
-0.9400000E+00  0.1282919E-19
-0.9200000E+00  0.1299173E-19
-0.9000000E+00  0.1329237E-19
-0.8800000E+00  0.1372153E-19
-0.8600000E+00  0.1422517E-19
-0.8400000E+00  0.1477605E-19
-0.8200000E+00  0.1532728E-19
-0.8000000E+00  0.1584920E-19
-0.7800000E+00  0.1632738E-19
-0.7600000E+00  0.1674228E-19
-0.7400000E+00  0.1706542E-19
-0.7200000E+00  0.1729585E-19
-0.7000000E+00  0.1734320E-19
-0.6800000E+00  0.1723518E-19
-0.6600000E+00  0.1699633E-19
-0.6400000E+00  0.1668089E-19
-0.6200000E+00  0.1635764E-19
-0.6000000E+00  0.1608593E-19
-0.5800000E+00  0.1589940E-19
-0.5600000E+00  0.1583975E-19
-0.5400000E+00  0.1590044E-19
-0.5200000E+00  0.1609411E-19
-0.5000000E+00  0.1639834E-19
-0.4800000E+00  0.1679736E-19
-0.4600000E+00  0.1727058E-19
-0.4400000E+00  0.1778327E-19
-0.4200000E+00  0.1827633E-19
-0.4000000E+00  0.1871363E-19
-0.3800000E+00  0.1906877E-19
-0.3600000E+00  0.1932238E-19
-0.3400000E+00  0.1944603E-19
-0.3200000E+00  0.1944784E-19
-0.3000000E+00  0.1935399E-19
-0.2800000E+00  0.1919894E-19
-0.2600000E+00  0.1900323E-19
-0.2400000E+00  0.1881544E-19
-0.2200000E+00  0.1865104E-19
-0.2000000E+00  0.1855763E-19
-0.1800000E+00  0.1855279E-19
-0.1600000E+00  0.1866803E-19
-0.1400000E+00  0.1892355E-19
-0.1200000E+00  0.1932370E-19
-0.1000000E+00  0.1983386E-19
-0.8000000E-01  0.2043171E-19
-0.6000000E-01  0.2092727E-19
-0.4000000E-01  0.2129660E-19
-0.2000000E-01  0.2150108E-19
 0.1249001E-15  0.2154112E-19
 0.2000000E-01  0.2143045E-19
 0.4000000E-01  0.2119749E-19
 0.6000000E-01  0.2085608E-19
 0.8000000E-01  0.2045556E-19
 0.1000000E+00  0.2001678E-19
 0.1200000E+00  0.1959739E-19
 0.1400000E+00  0.1922596E-19
 0.1600000E+00  0.1895220E-19
 0.1800000E+00  0.1881237E-19
 0.2000000E+00  0.1883290E-19
 0.2200000E+00  0.1899737E-19
 0.2400000E+00  0.1930316E-19
 0.2600000E+00  0.1973505E-19
 0.2800000E+00  0.2026687E-19
 0.3000000E+00  0.2083653E-19
 0.3200000E+00  0.2140882E-19
 0.3400000E+00  0.2194530E-19
 0.3600000E+00  0.2241989E-19
 0.3800000E+00  0.2278675E-19
 0.4000000E+00  0.2304281E-19
 0.4200000E+00  0.2316545E-19
 0.4400000E+00  0.2318095E-19
 0.4600000E+00  0.2309798E-19
 0.4800000E+00  0.2296583E-19
 0.5000000E+00  0.2283095E-19
 0.5200000E+00  0.2274782E-19
 0.5400000E+00  0.2273425E-19
 0.5600000E+00  0.2283048E-19
 0.5800000E+00  0.2297320E-19
 0.6000000E+00  0.2318245E-19
 0.6200000E+00  0.2343673E-19
 0.6400000E+00  0.2373830E-19
 0.6600000E+00  0.2407134E-19
 0.6800000E+00  0.2442446E-19
 0.7000000E+00  0.2474974E-19
 0.7200000E+00  0.2503271E-19
 0.7400000E+00  0.2522923E-19
 0.7600000E+00  0.2533596E-19
 0.7800000E+00  0.2532508E-19
 0.8000000E+00  0.2521377E-19
 0.8200000E+00  0.2501731E-19
 0.8400000E+00  0.2477277E-19
 0.8600000E+00  0.2448909E-19
 0.8800000E+00  0.2421440E-19
 0.9000000E+00  0.2399557E-19
 0.9200000E+00  0.2387745E-19
 0.9400000E+00  0.2386178E-19
 0.9600000E+00  0.2397666E-19
 0.9800000E+00  0.2422448E-19
 0.1000000E+01  0.2461083E-19
 0.1020000E+01  0.2509394E-19
 0.1040000E+01  0.2566016E-19
 0.1060000E+01  0.2625772E-19
 0.1080000E+01  0.2686605E-19
 0.1100000E+01  0.2742907E-19
 0.1120000E+01  0.2793353E-19
 0.1140000E+01  0.2835709E-19
 0.1160000E+01  0.2870350E-19
 0.1180000E+01  0.2894810E-19
 0.1200000E+01  0.2911419E-19
 0.1220000E+01  0.2918717E-19
 0.1240000E+01  0.2920679E-19
 0.1260000E+01  0.2917864E-19
 0.1280000E+01  0.2914908E-19
 0.1300000E+01  0.2914348E-19
 0.1320000E+01  0.2920071E-19
 0.1340000E+01  0.2931167E-19
 0.1360000E+01  0.2949772E-19
 0.1380000E+01  0.2973891E-19
 0.1400000E+01  0.3003834E-19
 0.1420000E+01  0.3035140E-19
 0.1440000E+01  0.3066995E-19
 0.1460000E+01  0.3096345E-19
 0.1480000E+01  0.3122395E-19
 0.1500000E+01  0.3140652E-19
 0.1520000E+01  0.3151505E-19
 0.1540000E+01  0.3155886E-19
 0.1560000E+01  0.3155878E-19
 0.1580000E+01  0.3150099E-19
 0.1600000E+01  0.3142077E-19
 0.1620000E+01  0.3133518E-19
 0.1640000E+01  0.3128658E-19
 0.1660000E+01  0.3127363E-19
 0.1680000E+01  0.3133507E-19
 0.1700000E+01  0.3147391E-19
 0.1720000E+01  0.3171657E-19
 0.1740000E+01  0.3203723E-19
 0.1760000E+01  0.3244566E-19
 0.1780000E+01  0.3291881E-19
 0.1800000E+01  0.3345209E-19
 0.1820000E+01  0.3399178E-19
 0.1840000E+01  0.3452728E-19
 0.1860000E+01  0.3497374E-19
 0.1880000E+01  0.3533003E-19
 0.1900000E+01  0.3555923E-19
 0.1920000E+01  0.3568063E-19
 0.1940000E+01  0.3569713E-19
 0.1960000E+01  0.3564759E-19
 0.1980000E+01  0.3553152E-19
 0.2000000E+01  0.3539887E-19
 0.2020000E+01  0.3527175E-19
 0.2040000E+01  0.3519890E-19
 0.2060000E+01  0.3517646E-19
 0.2080000E+01  0.3523992E-19
 0.2100000E+01  0.3538663E-19
 0.2120000E+01  0.3563274E-19
 0.2140000E+01  0.3593713E-19
 0.2160000E+01  0.3629881E-19
 0.2180000E+01  0.3670701E-19
 0.2200000E+01  0.3715097E-19
 0.2220000E+01  0.3757013E-19
 0.2240000E+01  0.3795493E-19
 0.2260000E+01  0.3827081E-19
 0.2280000E+01  0.3852180E-19
 0.2300000E+01  0.3867228E-19
 0.2320000E+01  0.3874635E-19
 0.2340000E+01  0.3875081E-19
 0.2360000E+01  0.3872771E-19
 0.2380000E+01  0.3867433E-19
 0.2400000E+01  0.3864041E-19
 0.2420000E+01  0.3864246E-19
 0.2440000E+01  0.3872510E-19
 0.2460000E+01  0.3887522E-19
 0.2480000E+01  0.3912180E-19
 0.2500000E+01  0.3932483E-19
 0.2520000E+01  0.3950533E-19
 0.2540000E+01  0.3963356E-19
 0.2560000E+01  0.3973239E-19
 0.2580000E+01  0.3979170E-19
 0.2600000E+01  0.3983642E-19
 0.2620000E+01  0.3984024E-19
 0.2640000E+01  0.3983026E-19
 0.2660000E+01  0.3980919E-19
 0.2680000E+01  0.3980529E-19
 0.2700000E+01  0.3979344E-19
 0.2720000E+01  0.3980102E-19
 0.2740000E+01  0.3981901E-19
 0.2760000E+01  0.3987308E-19
 0.2780000E+01  0.3993403E-19
 0.2800000E+01  0.4002537E-19
 0.2820000E+01  0.4016478E-19
 0.2840000E+01  0.4037125E-19
 0.2860000E+01  0.4060607E-19
 0.2880000E+01  0.4088256E-19
 0.2900000E+01  0.4117521E-19
 0.2920000E+01  0.4149525E-19
 0.2940000E+01  0.4179921E-19
 0.2960000E+01  0.4210044E-19
 0.2980000E+01  0.4239121E-19
 0.3000000E+01  0.4268916E-19
 0.3020000E+01  0.4295793E-19
 0.3040000E+01  0.4321916E-19
 0.3060000E+01  0.4345757E-19
 0.3080000E+01  0.4369828E-19
 0.3100000E+01  0.4391083E-19
 0.3120000E+01  0.4412191E-19
 0.3140000E+01  0.4430364E-19
 0.3160000E+01  0.4448372E-19
 0.3180000E+01  0.4463248E-19
 0.3200000E+01  0.4477710E-19
 0.3220000E+01  0.4490347E-19
 0.3240000E+01  0.4503673E-19
 0.3260000E+01  0.4514284E-19
 0.3280000E+01  0.4524489E-19
 0.3300000E+01  0.4534416E-19
 0.3320000E+01  0.4546178E-19
 0.3340000E+01  0.4555911E-19
 0.3360000E+01  0.4565606E-19
 0.3380000E+01  0.4573139E-19
 0.3400000E+01  0.4580717E-19
 0.3420000E+01  0.4584819E-19
 0.3440000E+01  0.4588124E-19
 0.3460000E+01  0.4593111E-19
 0.3480000E+01  0.4602685E-19
 0.3500000E+01  0.4613659E-19
 0.3520000E+01  0.4628761E-19
 0.3540000E+01  0.4646291E-19
 0.3560000E+01  0.4668757E-19
 0.3580000E+01  0.4692482E-19
 0.3600000E+01  0.4719759E-19
 0.3620000E+01  0.4750895E-19
 0.3640000E+01  0.4787846E-19
 0.3660000E+01  0.4826187E-19
 0.3680000E+01  0.4867455E-19
 0.3700000E+01  0.4908631E-19
 0.3720000E+01  0.4951133E-19
 0.3740000E+01  0.4990242E-19
 0.3760000E+01  0.5027592E-19
 0.3780000E+01  0.5060534E-19
 0.3800000E+01  0.5091184E-19
 0.3820000E+01  0.5115661E-19
 0.3840000E+01  0.5136628E-19
 0.3860000E+01  0.5152411E-19
 0.3880000E+01  0.5166132E-19
 0.3900000E+01  0.5174732E-19
 0.3920000E+01  0.5181584E-19
 0.3940000E+01  0.5188438E-19
 0.3960000E+01  0.5198462E-19
 0.3980000E+01  0.5208128E-19
 0.4000000E+01  0.5220026E-19
 0.4020000E+01  0.5231803E-19
 0.4040000E+01  0.5245662E-19
 0.4060000E+01  0.5257272E-19
 0.4080000E+01  0.5268806E-19
 0.4100000E+01  0.5282145E-19
 0.4120000E+01  0.5299450E-19
 0.4140000E+01  0.5316285E-19
 0.4160000E+01  0.5334763E-19
 0.4180000E+01  0.5352261E-19
 0.4200000E+01  0.5371150E-19
 0.4220000E+01  0.5387417E-19
 0.4240000E+01  0.5403854E-19
 0.4260000E+01  0.5422060E-19
 0.4280000E+01  0.5444948E-19
 0.4300000E+01  0.5468634E-19
 0.4320000E+01  0.5495728E-19
 0.4340000E+01  0.5523736E-19
 0.4360000E+01  0.5554984E-19
 0.4380000E+01  0.5584985E-19
 0.4400000E+01  0.5615913E-19
 0.4420000E+01  0.5646979E-19
 0.4440000E+01  0.5680312E-19
 0.4460000E+01  0.5711219E-19
 0.4480000E+01  0.5741804E-19
 0.4500000E+01  0.5769203E-19
 0.4520000E+01  0.5795760E-19
 0.4540000E+01  0.5817174E-19
 0.4560000E+01  0.5836193E-19
 0.4580000E+01  0.5854654E-19
 0.4600000E+01  0.5875427E-19
 0.4620000E+01  0.5894360E-19
 0.4640000E+01  0.5914073E-19
 0.4660000E+01  0.5931934E-19
 0.4680000E+01  0.5950432E-19
 0.4700000E+01  0.5965105E-19
 0.4720000E+01  0.5978514E-19
 0.4740000E+01  0.5993003E-19
 0.4760000E+01  0.6011036E-19
 0.4780000E+01  0.6027908E-19
 0.4800000E+01  0.6045858E-19
 0.4820000E+01  0.6061894E-19
 0.4840000E+01  0.6078422E-19
 0.4860000E+01  0.6090986E-19
 0.4880000E+01  0.6102466E-19
 0.4900000E+01  0.6115167E-19
 0.4920000E+01  0.6132197E-19
 0.4940000E+01  0.6149433E-19
 0.4960000E+01  0.6169772E-19
 0.4980000E+01  0.6190644E-19
 0.5000000E+01  0.6214746E-19
 0.5020000E+01  0.6237509E-19
 0.5040000E+01  0.6261490E-19
 0.5060000E+01  0.6279285E-19
 0.5080000E+01  0.6293869E-19
 0.5100000E+01  0.6301362E-19
 0.5120000E+01  0.6305475E-19
 0.5140000E+01  0.6304755E-19
 0.5160000E+01  0.6303407E-19
 0.5180000E+01  0.6298447E-19
 0.5200000E+01  0.6294192E-19
 0.5220000E+01  0.6294286E-19
 0.5240000E+01  0.6302403E-19
 0.5260000E+01  0.6314257E-19
 0.5280000E+01  0.6332344E-19
 0.5300000E+01  0.6353142E-19
 0.5320000E+01  0.6378330E-19
 0.5340000E+01  0.6402011E-19
 0.5360000E+01  0.6425701E-19
 0.5380000E+01  0.6450865E-19
 0.5400000E+01  0.6479106E-19
 0.5420000E+01  0.6504614E-19
 0.5440000E+01  0.6529220E-19
 0.5460000E+01  0.6549447E-19
 0.5480000E+01  0.6567831E-19
 0.5500000E+01  0.6579836E-19
 0.5520000E+01  0.6588876E-19
 0.5540000E+01  0.6598465E-19
 0.5560000E+01  0.6612317E-19
 0.5580000E+01  0.6626384E-19
 0.5600000E+01  0.6643940E-19
 0.5620000E+01  0.6662310E-19
 0.5640000E+01  0.6684273E-19
 0.5660000E+01  0.6704788E-19
 0.5680000E+01  0.6726290E-19
 0.5700000E+01  0.6750865E-19
 0.5720000E+01  0.6780519E-19
 0.5740000E+01  0.6809297E-19
 0.5760000E+01  0.6838767E-19
 0.5780000E+01  0.6864759E-19
 0.5800000E+01  0.6889065E-19
 0.5820000E+01  0.6906098E-19
 0.5840000E+01  0.6918437E-19
 0.5860000E+01  0.6929173E-19
 0.5880000E+01  0.6941480E-19
 0.5900000E+01  0.6950825E-19
 0.5920000E+01  0.6960505E-19
 0.5940000E+01  0.6968054E-19
 0.5960000E+01  0.6976901E-19
 0.5980000E+01  0.6982720E-19
 0.6000000E+01  0.6989049E-19
 0.6020000E+01  0.6999344E-19
 0.6040000E+01  0.7016752E-19
 0.6060000E+01  0.7036140E-19
 0.6080000E+01  0.7059899E-19
 0.6100000E+01  0.7084295E-19
 0.6120000E+01  0.7111393E-19
 0.6140000E+01  0.7135375E-19
 0.6160000E+01  0.7158501E-19
 0.6180000E+01  0.7183588E-19
 0.6200000E+01  0.7213027E-19
 0.6220000E+01  0.7241162E-19
 0.6240000E+01  0.7270305E-19
 0.6260000E+01  0.7296903E-19
 0.6280000E+01  0.7323518E-19
 0.6300000E+01  0.7344915E-19
 0.6320000E+01  0.7364114E-19
 0.6340000E+01  0.7380547E-19
 0.6360000E+01  0.7397562E-19
 0.6380000E+01  0.7410493E-19
 0.6400000E+01  0.7422752E-19
 0.6420000E+01  0.7431759E-19
 0.6440000E+01  0.7440948E-19
 0.6460000E+01  0.7445653E-19
 0.6480000E+01  0.7449323E-19
 0.6500000E+01  0.7456002E-19
 0.6520000E+01  0.7468679E-19
 0.6540000E+01  0.7481755E-19
 0.6560000E+01  0.7497454E-19
 0.6580000E+01  0.7511773E-19
 0.6600000E+01  0.7526766E-19
 0.6620000E+01  0.7536456E-19
 0.6640000E+01  0.7543372E-19
 0.6660000E+01  0.7550454E-19
 0.6680000E+01  0.7560656E-19
 0.6700000E+01  0.7568741E-19
 0.6720000E+01  0.7577811E-19
 0.6740000E+01  0.7584995E-19
 0.6760000E+01  0.7593681E-19
 0.6780000E+01  0.7599124E-19
 0.6800000E+01  0.7604991E-19
 0.6820000E+01  0.7615903E-19
 0.6840000E+01  0.7635124E-19
 0.6860000E+01  0.7657075E-19
 0.6880000E+01  0.7684044E-19
 0.6900000E+01  0.7711828E-19
 0.6920000E+01  0.7742171E-19
 0.6940000E+01  0.7768420E-19
 0.6960000E+01  0.7792425E-19
 0.6980000E+01  0.7818728E-19
 0.7000000E+01  0.7849258E-19
 0.7020000E+01  0.7877416E-19
 0.7040000E+01  0.7905052E-19
 0.7060000E+01  0.7928041E-19
 0.7080000E+01  0.7948777E-19
 0.7100000E+01  0.7961646E-19
 0.7120000E+01  0.7969969E-19
 0.7140000E+01  0.7978706E-19
 0.7160000E+01  0.7991534E-19
 0.7180000E+01  0.8003447E-19
 0.7200000E+01  0.8017719E-19
 0.7220000E+01  0.8031214E-19
 0.7240000E+01  0.8046854E-19
 0.7260000E+01  0.8058926E-19
 0.7280000E+01  0.8070217E-19
 0.7300000E+01  0.8083648E-19
 0.7320000E+01  0.8101678E-19
 0.7340000E+01  0.8117933E-19
 0.7360000E+01  0.8134503E-19
 0.7380000E+01  0.8147301E-19
 0.7400000E+01  0.8158718E-19
 0.7420000E+01  0.8162911E-19
 0.7440000E+01  0.8163122E-19
 0.7460000E+01  0.8164541E-19
 0.7480000E+01  0.8170849E-19
 0.7500000E+01  0.8176972E-19
 0.7520000E+01  0.8186367E-19
 0.7540000E+01  0.8196128E-19
 0.7560000E+01  0.8209532E-19
 0.7580000E+01  0.8221104E-19
 0.7600000E+01  0.8234010E-19
 0.7620000E+01  0.8228490E-19
 0.7640000E+01  0.8209182E-19
 0.7660000E+01  0.8173290E-19
 0.7680000E+01  0.8127782E-19
 0.7700000E+01  0.8074060E-19
 0.7720000E+01  0.8020153E-19
 0.7740000E+01  0.7965250E-19
 0.7760000E+01  0.7916831E-19
 0.7780000E+01  0.7883258E-19
 0.7800000E+01  0.7869525E-19
 0.7820000E+01  0.7870059E-19
 0.7840000E+01  0.7886419E-19
 0.7860000E+01  0.7912477E-19
 0.7880000E+01  0.7947451E-19
 0.7900000E+01  0.7981266E-19
 0.7920000E+01  0.8012747E-19
 0.7940000E+01  0.8041458E-19
 0.7960000E+01  0.8067302E-19
 0.7980000E+01  0.8082176E-19
 0.8000000E+01  0.8087965E-19
 0.8020000E+01  0.8081491E-19
 0.8040000E+01  0.8067177E-19
 0.8060000E+01  0.8041681E-19
 0.8080000E+01  0.8011441E-19
 0.8100000E+01  0.7985381E-19
 0.8120000E+01  0.7969979E-19
 0.8140000E+01  0.7961931E-19
 0.8160000E+01  0.7965778E-19
 0.8180000E+01  0.7978538E-19
 0.8200000E+01  0.8002409E-19
 0.8220000E+01  0.8029620E-19
 0.8240000E+01  0.8060623E-19
 0.8260000E+01  0.8100341E-19
 0.8280000E+01  0.8147942E-19
 0.8300000E+01  0.8193144E-19
 0.8320000E+01  0.8234725E-19
 0.8340000E+01  0.8265679E-19
 0.8360000E+01  0.8286354E-19
 0.8380000E+01  0.8289397E-19
 0.8400000E+01  0.8277983E-19
 0.8420000E+01  0.8259002E-19
 0.8440000E+01  0.8237853E-19
 0.8460000E+01  0.8211345E-19
 0.8480000E+01  0.8185558E-19
 0.8500000E+01  0.8160166E-19
 0.8520000E+01  0.8140891E-19
 0.8540000E+01  0.8123848E-19
 0.8560000E+01  0.8113586E-19
 0.8580000E+01  0.8114131E-19
 0.8600000E+01  0.8128089E-19
 0.8620000E+01  0.8147875E-19
 0.8640000E+01  0.8174231E-19
 0.8660000E+01  0.8201109E-19
 0.8680000E+01  0.8228788E-19
 0.8700000E+01  0.8248759E-19
 0.8720000E+01  0.8262370E-19
 0.8740000E+01  0.8274354E-19
 0.8760000E+01  0.8287423E-19
 0.8780000E+01  0.8295584E-19
 0.8800000E+01  0.8302496E-19
 0.8820000E+01  0.8305905E-19
 0.8840000E+01  0.8310244E-19
 0.8860000E+01  0.8310934E-19
 0.8880000E+01  0.8312620E-19
 0.8900000E+01  0.8316652E-19
 0.8920000E+01  0.8326998E-19
 0.8940000E+01  0.8337784E-19
 0.8960000E+01  0.8351752E-19
 0.8980000E+01  0.8364775E-19
 0.9000000E+01  0.8378721E-19
 0.9020000E+01  0.8386053E-19
 0.9040000E+01  0.8388590E-19
 0.9060000E+01  0.8391129E-19
 0.9080000E+01  0.8395663E-19
 0.9100000E+01  0.8394961E-19
 0.9120000E+01  0.8391351E-19
 0.9140000E+01  0.8381292E-19
 0.9160000E+01  0.8368202E-19
 0.9180000E+01  0.8346860E-19
 0.9200000E+01  0.8322000E-19
 0.9220000E+01  0.8299091E-19
 0.9240000E+01  0.8283255E-19
 0.9260000E+01  0.8269962E-19
 0.9280000E+01  0.8263557E-19
 0.9300000E+01  0.8261504E-19
 0.9320000E+01  0.8267038E-19
 0.9340000E+01  0.8273488E-19
 0.9360000E+01  0.8283088E-19
 0.9380000E+01  0.8300599E-19
 0.9400000E+01  0.8327084E-19
 0.9420000E+01  0.8353627E-19
 0.9440000E+01  0.8380448E-19
 0.9460000E+01  0.8401567E-19
 0.9480000E+01  0.8417838E-19
 0.9500000E+01  0.8421527E-19
 0.9520000E+01  0.8415342E-19
 0.9540000E+01  0.8410108E-19
 0.9560000E+01  0.8409770E-19
 0.9580000E+01  0.8408861E-19
 0.9600000E+01  0.8411313E-19
 0.9620000E+01  0.8414663E-19
 0.9640000E+01  0.8422646E-19
 0.9660000E+01  0.8429370E-19
 0.9680000E+01  0.8438193E-19
 0.9700000E+01  0.8455270E-19
 0.9720000E+01  0.8482784E-19
 0.9740000E+01  0.8512594E-19
 0.9760000E+01  0.8545383E-19
 0.9780000E+01  0.8575178E-19
 0.9800000E+01  0.8602288E-19
 0.9820000E+01  0.8617858E-19
 0.9840000E+01  0.8623169E-19
 0.9860000E+01  0.8620550E-19
 0.9880000E+01  0.8612766E-19
 0.9900000E+01  0.8593767E-19
 0.9920000E+01  0.8567771E-19
 0.9940000E+01  0.8533461E-19
 0.9960000E+01  0.8496468E-19
 0.9980000E+01  0.8453397E-19
 0.1000000E+02  0.8410671E-19
 0.1002000E+02  0.8377932E-19
 0.1004000E+02  0.8360663E-19
 0.1006000E+02  0.8353645E-19
 0.1008000E+02  0.8359999E-19
 0.1010000E+02  0.8375448E-19
 0.1012000E+02  0.8401029E-19
 0.1014000E+02  0.8427535E-19
 0.1016000E+02  0.8454979E-19
 0.1018000E+02  0.8485571E-19
 0.1020000E+02  0.8519093E-19
 0.1022000E+02  0.8545837E-19
 0.1024000E+02  0.8566149E-19
 0.1026000E+02  0.8574934E-19
 0.1028000E+02  0.8574407E-19
 0.1030000E+02  0.8558385E-19
 0.1032000E+02  0.8531510E-19
 0.1034000E+02  0.8502863E-19
 0.1036000E+02  0.8478340E-19
 0.1038000E+02  0.8454113E-19
 0.1040000E+02  0.8435655E-19
 0.1042000E+02  0.8421719E-19
 0.1044000E+02  0.8416667E-19
 0.1046000E+02  0.8414547E-19
 0.1048000E+02  0.8418366E-19
 0.1050000E+02  0.8430550E-19
 0.1052000E+02  0.8452532E-19
 0.1054000E+02  0.8475366E-19
 0.1056000E+02  0.8499322E-19
 0.1058000E+02  0.8518394E-19
 0.1060000E+02  0.8533072E-19
 0.1062000E+02  0.8534795E-19
 0.1064000E+02  0.8525541E-19
 0.1066000E+02  0.8511777E-19
 0.1068000E+02  0.8496871E-19
 0.1070000E+02  0.8474878E-19
 0.1072000E+02  0.8449897E-19
 0.1074000E+02  0.8420185E-19
 0.1076000E+02  0.8390462E-19
 0.1078000E+02  0.8355956E-19
 0.1080000E+02  0.8321683E-19
 0.1082000E+02  0.8301158E-19
 0.1084000E+02  0.8298092E-19
 0.1086000E+02  0.8305207E-19
 0.1088000E+02  0.8323798E-19
 0.1090000E+02  0.8348154E-19
 0.1092000E+02  0.8378220E-19
 0.1094000E+02  0.8404121E-19
 0.1096000E+02  0.8425984E-19
 0.1098000E+02  0.8448113E-19
 0.1100000E+02  0.8471411E-19
 0.1102000E+02  0.8487437E-19
 0.1104000E+02  0.8498056E-19
 0.1106000E+02  0.8499742E-19
 0.1108000E+02  0.8495890E-19
 0.1110000E+02  0.8480935E-19
 0.1112000E+02  0.8459731E-19
 0.1114000E+02  0.8437483E-19
 0.1116000E+02  0.8419398E-19
 0.1118000E+02  0.8400603E-19
 0.1120000E+02  0.8385505E-19
 0.1122000E+02  0.8371896E-19
 0.1124000E+02  0.8363152E-19
 0.1126000E+02  0.8352447E-19
 0.1128000E+02  0.8342381E-19
 0.1130000E+02  0.8338997E-19
 0.1132000E+02  0.8343957E-19
 0.1134000E+02  0.8348638E-19
 0.1136000E+02  0.8353961E-19
 0.1138000E+02  0.8354891E-19
 0.1140000E+02  0.8352869E-19
 0.1142000E+02  0.8340224E-19
 0.1144000E+02  0.8319880E-19
 0.1146000E+02  0.8292811E-19
 0.1148000E+02  0.8263460E-19
 0.1150000E+02  0.8227018E-19
 0.1152000E+02  0.8188829E-19
 0.1154000E+02  0.8148397E-19
 0.1156000E+02  0.8111261E-19
 0.1158000E+02  0.8072986E-19
 0.1160000E+02  0.8038560E-19
 0.1162000E+02  0.8016153E-19
 0.1164000E+02  0.8008953E-19
 0.1166000E+02  0.8009113E-19
 0.1168000E+02  0.8017547E-19
 0.1170000E+02  0.8028458E-19
 0.1172000E+02  0.8041752E-19
 0.1174000E+02  0.8047658E-19
 0.1176000E+02  0.8046717E-19
 0.1178000E+02  0.8039909E-19
 0.1180000E+02  0.8029277E-19
 0.1182000E+02  0.8007874E-19
 0.1184000E+02  0.7979438E-19
 0.1186000E+02  0.7942591E-19
 0.1188000E+02  0.7902669E-19
 0.1190000E+02  0.7855739E-19
 0.1192000E+02  0.7807953E-19
 0.1194000E+02  0.7769131E-19
 0.1196000E+02  0.7744351E-19
 0.1198000E+02  0.7727654E-19
 0.1200000E+02  0.7721642E-19
 0.1202000E+02  0.7721842E-19
 0.1204000E+02  0.7728846E-19
 0.1206000E+02  0.7732898E-19
 0.1208000E+02  0.7733919E-19
 0.1210000E+02  0.7741520E-19
 0.1212000E+02  0.7755349E-19
 0.1214000E+02  0.7765115E-19
 0.1216000E+02  0.7770664E-19
 0.1218000E+02  0.7766673E-19
 0.1220000E+02  0.7754792E-19
 0.1222000E+02  0.7728119E-19
 0.1224000E+02  0.7690884E-19
 0.1226000E+02  0.7652219E-19
 0.1228000E+02  0.7617807E-19
 0.1230000E+02  0.7583492E-19
 0.1232000E+02  0.7554652E-19
 0.1234000E+02  0.7530294E-19
 0.1236000E+02  0.7514645E-19
 0.1238000E+02  0.7501375E-19
 0.1240000E+02  0.7493216E-19
 0.1242000E+02  0.7491498E-19
 0.1244000E+02  0.7497373E-19
 0.1246000E+02  0.7501549E-19
 0.1248000E+02  0.7504256E-19
 0.1250000E+02  0.7499988E-19
 0.1252000E+02  0.7489565E-19
 0.1254000E+02  0.7464815E-19
 0.1256000E+02  0.7428447E-19
 0.1258000E+02  0.7388008E-19
 0.1260000E+02  0.7347834E-19
 0.1262000E+02  0.7302842E-19
 0.1264000E+02  0.7258045E-19
 0.1266000E+02  0.7212813E-19
 0.1268000E+02  0.7172329E-19
 0.1270000E+02  0.7131817E-19
 0.1272000E+02  0.7095999E-19
 0.1274000E+02  0.7079365E-19
 0.1276000E+02  0.7084451E-19
 0.1278000E+02  0.7102263E-19
 0.1280000E+02  0.7132163E-19
 0.1282000E+02  0.7166721E-19
 0.1284000E+02  0.7203794E-19
 0.1286000E+02  0.7231544E-19
 0.1288000E+02  0.7248596E-19
 0.1290000E+02  0.7258332E-19
 0.1292000E+02  0.7261337E-19
 0.1294000E+02  0.7249491E-19
 0.1296000E+02  0.7225738E-19
 0.1298000E+02  0.7188612E-19
 0.1300000E+02  0.7143625E-19
 0.1302000E+02  0.7087522E-19
 0.1304000E+02  0.7027540E-19
 0.1306000E+02  0.6970078E-19
 0.1308000E+02  0.6922179E-19
 0.1310000E+02  0.6880252E-19
 0.1312000E+02  0.6849366E-19
 0.1314000E+02  0.6827613E-19
 0.1316000E+02  0.6817508E-19
 0.1318000E+02  0.6810643E-19
 0.1320000E+02  0.6807483E-19
 0.1322000E+02  0.6811445E-19
 0.1324000E+02  0.6821558E-19
 0.1326000E+02  0.6826711E-19
 0.1328000E+02  0.6825727E-19
 0.1330000E+02  0.6812466E-19
 0.1332000E+02  0.6787612E-19
 0.1334000E+02  0.6743583E-19
 0.1336000E+02  0.6684218E-19
 0.1338000E+02  0.6624552E-19
 0.1340000E+02  0.6570306E-19
 0.1342000E+02  0.6517470E-19
 0.1344000E+02  0.6471583E-19
 0.1346000E+02  0.6432148E-19
 0.1348000E+02  0.6403730E-19
 0.1350000E+02  0.6380473E-19
 0.1352000E+02  0.6365530E-19
 0.1354000E+02  0.6364732E-19
 0.1356000E+02  0.6379170E-19
 0.1358000E+02  0.6399097E-19
 0.1360000E+02  0.6423726E-19
 0.1362000E+02  0.6446337E-19
 0.1364000E+02  0.6465922E-19
 0.1366000E+02  0.6472324E-19
 0.1368000E+02  0.6466049E-19
 0.1370000E+02  0.6447229E-19
 0.1372000E+02  0.6418664E-19
 0.1374000E+02  0.6374584E-19
 0.1376000E+02  0.6319997E-19
 0.1378000E+02  0.6255263E-19
 0.1380000E+02  0.6186974E-19
 0.1382000E+02  0.6112389E-19
 0.1384000E+02  0.6038481E-19
 0.1386000E+02  0.5975157E-19
 0.1388000E+02  0.5927752E-19
 0.1390000E+02  0.5890459E-19
 0.1392000E+02  0.5865695E-19
 0.1394000E+02  0.5849069E-19
 0.1396000E+02  0.5840729E-19
 0.1398000E+02  0.5830578E-19