-0.6000000E+01  0.0000000E+00
-0.5980000E+01  0.0000000E+00
-0.5960000E+01  0.5424335E-31
-0.5940000E+01  0.1778148E-30
-0.5920000E+01  0.1378865E-30
-0.5900000E+01 -0.5628956E-30
-0.5880000E+01 -0.1768289E-29
-0.5860000E+01 -0.2365201E-29
-0.5840000E+01 -0.4444368E-29
-0.5820000E+01 -0.5928928E-29
-0.5800000E+01 -0.7172775E-29
-0.5780000E+01 -0.8880364E-29
-0.5760000E+01 -0.8461812E-29
-0.5740000E+01 -0.6452514E-29
-0.5720000E+01 -0.4772150E-29
-0.5700000E+01 -0.3256534E-29
-0.5680000E+01 -0.2258075E-29
-0.5660000E+01 -0.5659742E-30
-0.5640000E+01 -0.2346933E-29
-0.5620000E+01 -0.1881618E-29
-0.5600000E+01 -0.2298436E-29
-0.5580000E+01 -0.6566344E-30
-0.5560000E+01 -0.2572620E-30
-0.5540000E+01  0.8043378E-30
-0.5520000E+01  0.2723075E-30
-0.5500000E+01 -0.8122789E-30
-0.5480000E+01 -0.2446516E-29
-0.5460000E+01 -0.2545132E-29
-0.5440000E+01 -0.2837543E-29
-0.5420000E+01 -0.2798264E-29
-0.5400000E+01 -0.1897030E-29
-0.5380000E+01 -0.4111194E-29
-0.5360000E+01 -0.6996346E-29
-0.5340000E+01 -0.8454150E-29
-0.5320000E+01 -0.1020425E-28
-0.5300000E+01 -0.9806716E-29
-0.5280000E+01 -0.7860065E-29
-0.5260000E+01 -0.7655815E-29
-0.5240000E+01 -0.5371676E-29
-0.5220000E+01 -0.7412760E-30
-0.5200000E+01  0.5983125E-29
-0.5180000E+01  0.1385578E-28
-0.5160000E+01  0.2071107E-28
-0.5140000E+01  0.2524410E-28
-0.5120000E+01  0.2779332E-28
-0.5100000E+01  0.2990651E-28
-0.5080000E+01  0.2784200E-28
-0.5060000E+01  0.2167571E-28
-0.5040000E+01  0.1209392E-28
-0.5020000E+01  0.1321712E-30
-0.5000000E+01 -0.1230592E-28
-0.4980000E+01 -0.2227656E-28
-0.4960000E+01 -0.3273355E-28
-0.4940000E+01 -0.4680516E-28
-0.4920000E+01 -0.5980944E-28
-0.4900000E+01 -0.7053167E-28
-0.4880000E+01 -0.7671329E-28
-0.4860000E+01 -0.8112544E-28
-0.4840000E+01 -0.8480228E-28
-0.4820000E+01 -0.8218569E-28
-0.4800000E+01 -0.7361460E-28
-0.4780000E+01 -0.6029591E-28
-0.4760000E+01 -0.4672836E-28
-0.4740000E+01 -0.3263762E-28
-0.4720000E+01 -0.1748581E-28
-0.4700000E+01 -0.2164495E-29
-0.4680000E+01  0.1204385E-28
-0.4660000E+01  0.2426670E-28
-0.4640000E+01  0.3511588E-28
-0.4620000E+01  0.4149320E-28
-0.4600000E+01  0.4499812E-28
-0.4580000E+01  0.4664656E-28
-0.4560000E+01  0.4940893E-28
-0.4540000E+01  0.4567509E-28
-0.4520000E+01  0.3424661E-28
-0.4500000E+01  0.1651910E-28
-0.4480000E+01  0.2902104E-29
-0.4460000E+01 -0.1042640E-28
-0.4440000E+01 -0.2329952E-28
-0.4420000E+01 -0.3494406E-28
-0.4400000E+01 -0.3955491E-28
-0.4380000E+01 -0.3826500E-28
-0.4360000E+01 -0.3229448E-28
-0.4340000E+01 -0.2338518E-28
-0.4320000E+01 -0.1171769E-28
-0.4300000E+01  0.9652226E-30
-0.4280000E+01  0.1101618E-28
-0.4260000E+01  0.1669829E-28
-0.4240000E+01  0.1844568E-28
-0.4220000E+01  0.1365756E-28
-0.4200000E+01  0.2076622E-29
-0.4180000E+01 -0.1681485E-28
-0.4160000E+01 -0.4214683E-28
-0.4140000E+01 -0.7235691E-28
-0.4120000E+01 -0.1036249E-27
-0.4100000E+01 -0.1316956E-27
-0.4080000E+01 -0.1524848E-27
-0.4060000E+01 -0.1635554E-27
-0.4040000E+01 -0.1628179E-27
-0.4020000E+01 -0.1520007E-27
-0.4000000E+01 -0.1303167E-27
-0.3980000E+01 -0.1000149E-27
-0.3960000E+01 -0.6420699E-28
-0.3940000E+01 -0.2409206E-28
-0.3920000E+01  0.1549302E-28
-0.3900000E+01  0.5058264E-28
-0.3880000E+01  0.7912021E-28
-0.3860000E+01  0.9922174E-28
-0.3840000E+01  0.1015428E-27
-0.3820000E+01  0.8367475E-28
-0.3800000E+01  0.4737288E-28
-0.3780000E+01  0.2889817E-30
-0.3760000E+01 -0.5062056E-28
-0.3740000E+01 -0.1136681E-27
-0.3720000E+01 -0.1760082E-27
-0.3700000E+01 -0.2355574E-27
-0.3680000E+01 -0.2867684E-27
-0.3660000E+01 -0.3289565E-27
-0.3640000E+01 -0.3607433E-27
-0.3620000E+01 -0.3807498E-27
-0.3600000E+01 -0.3862070E-27
-0.3580000E+01 -0.3767713E-27
-0.3560000E+01 -0.3468903E-27
-0.3540000E+01 -0.3041904E-27
-0.3520000E+01 -0.2476193E-27
-0.3500000E+01 -0.1847941E-27
-0.3480000E+01 -0.1233246E-27
-0.3460000E+01 -0.7150978E-28
-0.3440000E+01 -0.3035877E-28
-0.3420000E+01 -0.8859529E-29
-0.3400000E+01 -0.1183986E-28
-0.3380000E+01 -0.3996979E-28
-0.3360000E+01 -0.8559893E-28
-0.3340000E+01 -0.1445537E-27
-0.3320000E+01 -0.2126642E-27
-0.3300000E+01 -0.2906214E-27
-0.3280000E+01 -0.3638529E-27
-0.3260000E+01 -0.4233394E-27
-0.3240000E+01 -0.4649276E-27
-0.3220000E+01 -0.4893284E-27
-0.3200000E+01 -0.4840734E-27
-0.3180000E+01 -0.4471047E-27
-0.3160000E+01 -0.3728909E-27
-0.3140000E+01 -0.2725477E-27
-0.3120000E+01 -0.1641222E-27
-0.3100000E+01 -0.4552994E-28
-0.3080000E+01  0.7005411E-28
-0.3060000E+01  0.1770930E-27
-0.3040000E+01  0.2679727E-27
-0.3020000E+01  0.3309185E-27
-0.3000000E+01  0.3638749E-27
-0.2980000E+01  0.3578495E-27
-0.2960000E+01  0.3218916E-27
-0.2940000E+01  0.2497832E-27
-0.2920000E+01  0.1561212E-27
-0.2900000E+01  0.5272298E-28
-0.2880000E+01 -0.4374081E-28
-0.2860000E+01 -0.1124410E-27
-0.2840000E+01 -0.1596116E-27
-0.2820000E+01 -0.1776100E-27
-0.2800000E+01 -0.1685089E-27
-0.2780000E+01 -0.1267486E-27
-0.2760000E+01 -0.5371032E-28
-0.2740000E+01  0.4783491E-28
-0.2720000E+01  0.1591557E-27
-0.2700000E+01  0.2601321E-27
-0.2680000E+01  0.3417496E-27
-0.2660000E+01  0.3943025E-27
-0.2640000E+01  0.4289050E-27
-0.2620000E+01  0.4427953E-27
-0.2600000E+01  0.4227864E-27
-0.2580000E+01  0.3757970E-27
-0.2560000E+01  0.2990166E-27
-0.2540000E+01  0.2083582E-27
-0.2520000E+01  0.1134848E-27
-0.2500000E+01  0.2683443E-28
-0.2480000E+01 -0.3498766E-28
-0.2460000E+01 -0.6924686E-28
-0.2440000E+01 -0.7320076E-28
-0.2420000E+01 -0.4617906E-28
-0.2400000E+01  0.1804998E-28
-0.2380000E+01  0.1059522E-27
-0.2360000E+01  0.2151070E-27
-0.2340000E+01  0.3365107E-27
-0.2320000E+01  0.4521447E-27
-0.2300000E+01  0.5391353E-27
-0.2280000E+01  0.5857103E-27
-0.2260000E+01  0.5925842E-27
-0.2240000E+01  0.5465872E-27
-0.2220000E+01  0.4470318E-27
-0.2200000E+01  0.3022459E-27
-0.2180000E+01  0.1337362E-27
-0.2160000E+01 -0.5919854E-28
-0.2140000E+01 -0.2529745E-27
-0.2120000E+01 -0.4260905E-27
-0.2100000E+01 -0.5730026E-27
-0.2080000E+01 -0.6708148E-27
-0.2060000E+01 -0.7188282E-27
-0.2040000E+01 -0.7128626E-27
-0.2020000E+01 -0.6591341E-27
-0.2000000E+01 -0.5381736E-27
-0.1980000E+01 -0.3762996E-27
-0.1960000E+01 -0.1894241E-27
-0.1940000E+01  0.1694399E-28
-0.1920000E+01  0.2164700E-27
-0.1900000E+01  0.4008489E-27
-0.1880000E+01  0.5576010E-27
-0.1860000E+01  0.6652131E-27
-0.1840000E+01  0.7090979E-27
-0.1820000E+01  0.6864512E-27
-0.1800000E+01  0.6124967E-27
-0.1780000E+01  0.4830186E-27
-0.1760000E+01  0.3166920E-27
-0.1740000E+01  0.1231688E-27
-0.1720000E+01 -0.7679369E-28
-0.1700000E+01 -0.2547972E-27
-0.1680000E+01 -0.3793099E-27
-0.1660000E+01 -0.4486236E-27
-0.1640000E+01 -0.4509521E-27
-0.1620000E+01 -0.3803908E-27
-0.1600000E+01 -0.2615509E-27
-0.1580000E+01 -0.9439719E-28
-0.1560000E+01  0.8781120E-28
-0.1540000E+01  0.2483546E-27
-0.1520000E+01  0.3879877E-27
-0.1500000E+01  0.4679137E-27
-0.1480000E+01  0.5020660E-27
-0.1460000E+01  0.4793895E-27
-0.1440000E+01  0.3971453E-27
-0.1420000E+01  0.2803393E-27
-0.1400000E+01  0.1269066E-27
-0.1380000E+01 -0.4371357E-28
-0.1360000E+01 -0.2127819E-27
-0.1340000E+01 -0.3726643E-27
-0.1320000E+01 -0.5164240E-27
-0.1300000E+01 -0.6135326E-27
-0.1280000E+01 -0.6438697E-27
-0.1260000E+01 -0.6067410E-27
-0.1240000E+01 -0.4868750E-27
-0.1220000E+01 -0.3175667E-27
-0.1200000E+01 -0.8908508E-28
-0.1180000E+01  0.1805491E-27
-0.1160000E+01  0.4649885E-27
-0.1140000E+01  0.7323331E-27
-0.1120000E+01  0.9506795E-27
-0.1100000E+01  0.1093671E-26
-0.1080000E+01  0.1177970E-26
-0.1060000E+01  0.1203582E-26
-0.1040000E+01  0.1159406E-26
-0.1020000E+01  0.1028792E-26
-0.1000000E+01  0.8464347E-27
-0.9800000E+00  0.6317683E-27
-0.9600000E+00  0.3778618E-27
-0.9400000E+00  0.1138707E-27
-0.9200000E+00 -0.1615738E-27
-0.9000000E+00 -0.4109760E-27
-0.8800000E+00 -0.5996101E-27
-0.8600000E+00 -0.7246655E-27
-0.8400000E+00 -0.7916580E-27
-0.8200000E+00 -0.8116568E-27
-0.8000000E+00 -0.8068378E-27
-0.7800000E+00 -0.7966079E-27
-0.7600000E+00 -0.7920537E-27
-0.7400000E+00 -0.7834521E-27
-0.7200000E+00 -0.7624753E-27
-0.7000000E+00 -0.7388434E-27
-0.6800000E+00 -0.7320041E-27
-0.6600000E+00 -0.7405974E-27
-0.6400000E+00 -0.7729855E-27
-0.6200000E+00 -0.8250425E-27
-0.6000000E+00 -0.8829248E-27
-0.5800000E+00 -0.9327805E-27
-0.5600000E+00 -0.9607475E-27
-0.5400000E+00 -0.9654393E-27
-0.5200000E+00 -0.9274161E-27
-0.5000000E+00 -0.8438776E-27
-0.4800000E+00 -0.6967474E-27
-0.4600000E+00 -0.4762664E-27
-0.4400000E+00 -0.2045872E-27
-0.4200000E+00  0.1058557E-27
-0.4000000E+00  0.4107074E-27
-0.3800000E+00  0.6669959E-27
-0.3600000E+00  0.8928045E-27
-0.3400000E+00  0.1039594E-26
-0.3200000E+00  0.1096282E-26
-0.3000000E+00  0.1080921E-26
-0.2800000E+00  0.1025429E-26
-0.2600000E+00  0.9048185E-27
-0.2400000E+00  0.7315675E-27
-0.2200000E+00  0.5320289E-27
-0.2000000E+00  0.3145142E-27
-0.1800000E+00  0.7901129E-28
-0.1600000E+00 -0.1342416E-27
-0.1400000E+00 -0.2933258E-27
-0.1200000E+00 -0.3843547E-27
-0.1000000E+00 -0.4142488E-27
-0.8000000E-01 -0.3899214E-27
-0.6000000E-01 -0.3238317E-27
-0.4000000E-01 -0.2159576E-27
-0.2000000E-01 -0.6212443E-28
 0.1249001E-15  0.1140733E-27
 0.2000000E-01  0.2432314E-27
 0.4000000E-01  0.3253225E-27
 0.6000000E-01  0.3658611E-27
 0.8000000E-01  0.3509249E-27
 0.1000000E+00  0.2638120E-27
 0.1200000E+00  0.1294521E-27
 0.1400000E+00 -0.6052897E-28
 0.1600000E+00 -0.2562130E-27
 0.1800000E+00 -0.4090599E-27
 0.2000000E+00 -0.5135375E-27
 0.2200000E+00 -0.5752008E-27
 0.2400000E+00 -0.5385281E-27
 0.2600000E+00 -0.3993310E-27
 0.2800000E+00 -0.1645103E-27
 0.3000000E+00  0.1923513E-27
 0.3200000E+00  0.6185736E-27
 0.3400000E+00  0.1125318E-26
 0.3600000E+00  0.1643253E-26
 0.3800000E+00  0.2108596E-26
 0.4000000E+00  0.2471436E-26
 0.4200000E+00  0.2691567E-26
 0.4400000E+00  0.2727383E-26
 0.4600000E+00  0.2563638E-26
 0.4800000E+00  0.2225322E-26
 0.5000000E+00  0.1698558E-26
 0.5200000E+00  0.1077714E-26
 0.5400000E+00  0.4418916E-27
 0.5600000E+00 -0.2089092E-27
 0.5800000E+00 -0.8011324E-27
 0.6000000E+00 -0.1294529E-26
 0.6200000E+00 -0.1633584E-26
 0.6400000E+00 -0.1765557E-26
 0.6600000E+00 -0.1733463E-26
 0.6800000E+00 -0.1476235E-26
 0.7000000E+00 -0.1072971E-26
 0.7200000E+00 -0.5722401E-27
 0.7400000E+00  0.3428361E-28
 0.7600000E+00  0.6383469E-27
 0.7800000E+00  0.1192753E-26
 0.8000000E+00  0.1616991E-26
 0.8200000E+00  0.1861077E-26
 0.8400000E+00  0.1931919E-26
 0.8600000E+00  0.1797570E-26
 0.8800000E+00  0.1427468E-26
 0.9000000E+00  0.8604449E-27
 0.9200000E+00  0.1200758E-27
 0.9400000E+00 -0.7228703E-27
 0.9600000E+00 -0.1526836E-26
 0.9800000E+00 -0.2239068E-26
 0.1000000E+01 -0.2770719E-26
 0.1020000E+01 -0.3073174E-26
 0.1040000E+01 -0.3110297E-26
 0.1060000E+01 -0.2875089E-26
 0.1080000E+01 -0.2363322E-26
 0.1100000E+01 -0.1624892E-26
 0.1120000E+01 -0.7124738E-27
 0.1140000E+01  0.2657414E-27
 0.1160000E+01  0.1226533E-26
 0.1180000E+01  0.2083898E-26
 0.1200000E+01  0.2743495E-26
 0.1220000E+01  0.3097093E-26
 0.1240000E+01  0.3150250E-26
 0.1260000E+01  0.2875210E-26
 0.1280000E+01  0.2302494E-26
 0.1300000E+01  0.1457070E-26
 0.1320000E+01  0.4721520E-27
 0.1340000E+01 -0.5468004E-27
 0.1360000E+01 -0.1566488E-26
 0.1380000E+01 -0.2486992E-26
 0.1400000E+01 -0.3250024E-26
 0.1420000E+01 -0.3802840E-26
 0.1440000E+01 -0.4112120E-26
 0.1460000E+01 -0.4155644E-26
 0.1480000E+01 -0.3905641E-26
 0.1500000E+01 -0.3437032E-26
 0.1520000E+01 -0.2719272E-26
 0.1540000E+01 -0.1849493E-26
 0.1560000E+01 -0.8887487E-27
 0.1580000E+01  0.8803023E-28
 0.1600000E+01  0.9892542E-27
 0.1620000E+01  0.1723333E-26
 0.1640000E+01  0.2287492E-26
 0.1660000E+01  0.2626223E-26
 0.1680000E+01  0.2697897E-26
 0.1700000E+01  0.2491418E-26
 0.1720000E+01  0.2084509E-26
 0.1740000E+01  0.1549351E-26
 0.1760000E+01  0.9470216E-27
 0.1780000E+01  0.3441561E-27
 0.1800000E+01 -0.1815066E-27
 0.1820000E+01 -0.5688776E-27
 0.1840000E+01 -0.8262577E-27
 0.1860000E+01 -0.9924794E-27
 0.1880000E+01 -0.1042544E-26
 0.1900000E+01 -0.9597856E-27
 0.1920000E+01 -0.8052621E-27
 0.1940000E+01 -0.6539159E-27
 0.1960000E+01 -0.5002034E-27
 0.1980000E+01 -0.2469906E-27
 0.2000000E+01 -0.1641453E-28
 0.2020000E+01  0.1998402E-27
 0.2040000E+01  0.3656833E-27
 0.2060000E+01  0.4755622E-27
 0.2080000E+01  0.5378082E-27
 0.2100000E+01  0.5774146E-27
 0.2120000E+01  0.6804448E-27
 0.2140000E+01  0.7886419E-27
 0.2160000E+01  0.8853876E-27
 0.2180000E+01  0.1009579E-26
 0.2200000E+01  0.1169586E-26
 0.2220000E+01  0.1334923E-26
 0.2240000E+01  0.1497303E-26
 0.2260000E+01  0.1579050E-26
 0.2280000E+01  0.1582969E-26
 0.2300000E+01  0.1547941E-26
 0.2320000E+01  0.1451772E-26
 0.2340000E+01  0.1302795E-26
 0.2360000E+01  0.1026064E-26
 0.2380000E+01  0.6826321E-27
 0.2400000E+01  0.3002405E-27
 0.2420000E+01 -0.1239017E-27
 0.2440000E+01 -0.5731557E-27
 0.2460000E+01 -0.9281825E-27
 0.2480000E+01 -0.1150130E-26
 0.2500000E+01 -0.1233447E-26
 0.2520000E+01 -0.1150380E-26
 0.2540000E+01 -0.9286888E-27
 0.2560000E+01 -0.6238928E-27
 0.2580000E+01 -0.2554294E-27
 0.2600000E+01  0.1128530E-27
 0.2620000E+01  0.4087802E-27
 0.2640000E+01  0.5796055E-27
 0.2660000E+01  0.6558499E-27
 0.2680000E+01  0.5431355E-27
 0.2700000E+01  0.2608857E-27
 0.2720000E+01 -0.2269860E-27
 0.2740000E+01 -0.9121540E-27
 0.2760000E+01 -0.1755759E-26
 0.2780000E+01 -0.2588486E-26
 0.2800000E+01 -0.3279876E-26
 0.2820000E+01 -0.3718896E-26
 0.2840000E+01 -0.3863895E-26
 0.2860000E+01 -0.3642687E-26
 0.2880000E+01 -0.3055246E-26
 0.2900000E+01 -0.2145950E-26
 0.2920000E+01 -0.9258693E-27
 0.2940000E+01  0.4745795E-27
 0.2960000E+01  0.1944408E-26
 0.2980000E+01  0.3425363E-26
 0.3000000E+01  0.4767597E-26
 0.3020000E+01  0.5804608E-26
 0.3040000E+01  0.6394872E-26
 0.3060000E+01  0.6471800E-26
 0.3080000E+01  0.5993781E-26
 0.3100000E+01  0.4888668E-26
 0.3120000E+01  0.3278601E-26
 0.3140000E+01  0.1299592E-26
 0.3160000E+01 -0.9206810E-27
 0.3180000E+01 -0.3157396E-26
 0.3200000E+01 -0.5135778E-26
 0.3220000E+01 -0.6755916E-26
 0.3240000E+01 -0.7815209E-26
 0.3260000E+01 -0.8161013E-26
 0.3280000E+01 -0.7735062E-26
 0.3300000E+01 -0.6626189E-26
 0.3320000E+01 -0.4903804E-26
 0.3340000E+01 -0.2715027E-26
 0.3360000E+01 -0.3762879E-27
 0.3380000E+01  0.1976399E-26
 0.3400000E+01  0.4129302E-26
 0.3420000E+01  0.5863146E-26
 0.3440000E+01  0.6980857E-26
 0.3460000E+01  0.7376962E-26
 0.3480000E+01  0.7087546E-26
 0.3500000E+01  0.6126498E-26
 0.3520000E+01  0.4635386E-26
 0.3540000E+01  0.2802971E-26
 0.3560000E+01  0.8374491E-27
 0.3580000E+01 -0.1064081E-26
 0.3600000E+01 -0.2754476E-26
 0.3620000E+01 -0.3983894E-26
 0.3640000E+01 -0.4649593E-26
 0.3660000E+01 -0.4646053E-26
 0.3680000E+01 -0.3942692E-26
 0.3700000E+01 -0.2561666E-26
 0.3720000E+01 -0.6444819E-27
 0.3740000E+01  0.1753392E-26
 0.3760000E+01  0.4326681E-26
 0.3780000E+01  0.6792307E-26
 0.3800000E+01  0.8928248E-26
 0.3820000E+01  0.1049860E-25
 0.3840000E+01  0.1135348E-25
 0.3860000E+01  0.1130137E-25
 0.3880000E+01  0.1041722E-25
 0.3900000E+01  0.8651045E-26
 0.3920000E+01  0.6130503E-26
 0.3940000E+01  0.3127584E-26
 0.3960000E+01 -0.1051544E-27
 0.3980000E+01 -0.3251311E-26
 0.4000000E+01 -0.5947295E-26
 0.4020000E+01 -0.7968289E-26
 0.4040000E+01 -0.9150535E-26
 0.4060000E+01 -0.9435738E-26
 0.4080000E+01 -0.8857192E-26
 0.4100000E+01 -0.7528683E-26
 0.4120000E+01 -0.5602845E-26
 0.4140000E+01 -0.3343333E-26
 0.4160000E+01 -0.9915948E-27
 0.4180000E+01  0.1147085E-26
 0.4200000E+01  0.2842358E-26
 0.4220000E+01  0.3919388E-26
 0.4240000E+01  0.4311581E-26
 0.4260000E+01  0.3935684E-26
 0.4280000E+01  0.2813913E-26
 0.4300000E+01  0.1140572E-26
 0.4320000E+01 -0.9344522E-27
 0.4340000E+01 -0.3255717E-26
 0.4360000E+01 -0.5484596E-26
 0.4380000E+01 -0.7337973E-26
 0.4400000E+01 -0.8593794E-26
 0.4420000E+01 -0.9157682E-26
 0.4440000E+01 -0.8901948E-26
 0.4460000E+01 -0.7837678E-26
 0.4480000E+01 -0.6125839E-26
 0.4500000E+01 -0.4010659E-26
 0.4520000E+01 -0.1614244E-26
 0.4540000E+01  0.7470145E-27
 0.4560000E+01  0.2806681E-26
 0.4580000E+01  0.4420446E-26
 0.4600000E+01  0.5310773E-26
 0.4620000E+01  0.5350006E-26
 0.4640000E+01  0.4671391E-26
 0.4660000E+01  0.3230538E-26
 0.4680000E+01  0.1171789E-26
 0.4700000E+01 -0.1171773E-26
 0.4720000E+01 -0.3578094E-26
 0.4740000E+01 -0.5819572E-26
 0.4760000E+01 -0.7629747E-26
 0.4780000E+01 -0.8653338E-26
 0.4800000E+01 -0.8795969E-26
 0.4820000E+01 -0.8074283E-26
 0.4840000E+01 -0.6477171E-26
 0.4860000E+01 -0.4115648E-26
 0.4880000E+01 -0.1278363E-26
 0.4900000E+01  0.1707172E-26
 0.4920000E+01  0.4635574E-26
 0.4940000E+01  0.7184889E-26
 0.4960000E+01  0.9155286E-26
 0.4980000E+01  0.1039690E-25
 0.5000000E+01  0.1077096E-25
 0.5020000E+01  0.1022197E-25
 0.5040000E+01  0.8860951E-26
 0.5060000E+01  0.6871108E-26
 0.5080000E+01  0.4491134E-26
 0.5100000E+01  0.2048539E-26
 0.5120000E+01 -0.1125186E-27
 0.5140000E+01 -0.1825522E-26
 0.5160000E+01 -0.2835141E-26
 0.5180000E+01 -0.3124742E-26
 0.5200000E+01 -0.2572224E-26
 0.5220000E+01 -0.1283076E-26
 0.5240000E+01  0.5483978E-27
 0.5260000E+01  0.2733455E-26
 0.5280000E+01  0.5016745E-26
 0.5300000E+01  0.7092967E-26
 0.5320000E+01  0.8584661E-26
 0.5340000E+01  0.9341968E-26
 0.5360000E+01  0.9264993E-26
 0.5380000E+01  0.8298248E-26
 0.5400000E+01  0.6397355E-26
 0.5420000E+01  0.3751083E-26
 0.5440000E+01  0.6037115E-27
 0.5460000E+01 -0.2667255E-26
 0.5480000E+01 -0.5734276E-26
 0.5500000E+01 -0.8169893E-26
 0.5520000E+01 -0.9641026E-26
 0.5540000E+01 -0.9986679E-26
 0.5560000E+01 -0.9201294E-26
 0.5580000E+01 -0.7418087E-26
 0.5600000E+01 -0.4692562E-26
 0.5620000E+01 -0.1291162E-26
 0.5640000E+01  0.2336478E-26
 0.5660000E+01  0.5929464E-26
 0.5680000E+01  0.9165837E-26
 0.5700000E+01  0.1177915E-25
 0.5720000E+01  0.1344743E-25
 0.5740000E+01  0.1400972E-25
 0.5760000E+01  0.1334390E-25
 0.5780000E+01  0.1143331E-25
 0.5800000E+01  0.8405633E-26
 0.5820000E+01  0.4571735E-26
 0.5840000E+01  0.3090857E-27
 0.5860000E+01 -0.4149176E-26
 0.5880000E+01 -0.8286807E-26
 0.5900000E+01 -0.1179850E-25
 0.5920000E+01 -0.1440116E-25
 0.5940000E+01 -0.1581168E-25
 0.5960000E+01 -0.1598011E-25
 0.5980000E+01 -0.1486205E-25
 0.6000000E+01 -0.1260736E-25
 0.6020000E+01 -0.9449197E-26
 0.6040000E+01 -0.5709519E-26
 0.6060000E+01 -0.1793539E-26
 0.6080000E+01  0.1971249E-26
 0.6100000E+01  0.5224050E-26
 0.6120000E+01  0.7626276E-26
 0.6140000E+01  0.9139103E-26
 0.6160000E+01  0.9734809E-26
 0.6180000E+01  0.9352364E-26
 0.6200000E+01  0.8191646E-26
 0.6220000E+01  0.6330407E-26
 0.6240000E+01  0.3985178E-26
 0.6260000E+01  0.1555675E-26
 0.6280000E+01 -0.6416582E-27
 0.6300000E+01 -0.2379196E-26
 0.6320000E+01 -0.3434873E-26
 0.6340000E+01 -0.3941901E-26
 0.6360000E+01 -0.3755940E-26
 0.6380000E+01 -0.2988008E-26
 0.6400000E+01 -0.1682515E-26
 0.6420000E+01 -0.1155034E-28
 0.6440000E+01  0.1669602E-26
 0.6460000E+01  0.3072270E-26
 0.6480000E+01  0.4179781E-26
 0.6500000E+01  0.4908846E-26
 0.6520000E+01  0.5081811E-26
 0.6540000E+01  0.4537679E-26
 0.6560000E+01  0.3304194E-26
 0.6580000E+01  0.1386900E-26
 0.6600000E+01 -0.1097634E-26
 0.6620000E+01 -0.3982876E-26
 0.6640000E+01 -0.6896902E-26
 0.6660000E+01 -0.9523298E-26
 0.6680000E+01 -0.1160671E-25
 0.6700000E+01 -0.1295838E-25
 0.6720000E+01 -0.1336737E-25
 0.6740000E+01 -0.1277258E-25
 0.6760000E+01 -0.1127950E-25
 0.6780000E+01 -0.8949155E-26
 0.6800000E+01 -0.5936975E-26
 0.6820000E+01 -0.2503854E-26
 0.6840000E+01  0.1039357E-26
 0.6860000E+01  0.4248580E-26
 0.6880000E+01  0.6829619E-26
 0.6900000E+01  0.8643708E-26
 0.6920000E+01  0.9629798E-26
 0.6940000E+01  0.9726836E-26
 0.6960000E+01  0.8846012E-26
 0.6980000E+01  0.7298194E-26
 0.7000000E+01  0.5383150E-26
 0.7020000E+01  0.3306283E-26
 0.7040000E+01  0.1356264E-26
 0.7060000E+01 -0.2004389E-27
 0.7080000E+01 -0.1186177E-26
 0.7100000E+01 -0.1356686E-26
 0.7120000E+01 -0.6730997E-27
 0.7140000E+01  0.6925069E-27
 0.7160000E+01  0.2568058E-26
 0.7180000E+01  0.4759277E-26
 0.7200000E+01  0.7127398E-26
 0.7220000E+01  0.9167279E-26
 0.7240000E+01  0.1054586E-25
 0.7260000E+01  0.1094674E-25
 0.7280000E+01  0.1034217E-25
 0.7300000E+01  0.8826502E-26
 0.7320000E+01  0.6333134E-26
 0.7340000E+01  0.3006393E-26
 0.7360000E+01 -0.6874292E-27
 0.7380000E+01 -0.4309795E-26
 0.7400000E+01 -0.7466578E-26
 0.7420000E+01 -0.9824714E-26
 0.7440000E+01 -0.1116771E-25
 0.7460000E+01 -0.1126244E-25
 0.7480000E+01 -0.1016440E-25
 0.7500000E+01 -0.7895792E-26
 0.7520000E+01 -0.4711967E-26
 0.7540000E+01 -0.8904657E-27
 0.7560000E+01  0.3091328E-26
 0.7580000E+01  0.6961426E-26
 0.7600000E+01  0.1015918E-25
 0.7620000E+01  0.1234597E-25
 0.7640000E+01  0.1316099E-25
 0.7660000E+01  0.1243768E-25
 0.7680000E+01  0.1009828E-25
 0.7700000E+01  0.6392554E-26
 0.7720000E+01  0.1597999E-26
 0.7740000E+01 -0.3858003E-26
 0.7760000E+01 -0.9503667E-26
 0.7780000E+01 -0.1486720E-25
 0.7800000E+01 -0.1957672E-25
 0.7820000E+01 -0.2309934E-25
 0.7840000E+01 -0.2498543E-25
 0.7860000E+01 -0.2517393E-25
 0.7880000E+01 -0.2355933E-25
 0.7900000E+01 -0.2042473E-25
 0.7920000E+01 -0.1590332E-25
 0.7940000E+01 -0.1045026E-25
 0.7960000E+01 -0.4537367E-26
 0.7980000E+01  0.1208099E-26
 0.8000000E+01  0.6264352E-26
 0.8020000E+01  0.1013180E-25
 0.8040000E+01  0.1250511E-25
 0.8060000E+01  0.1328991E-25
 0.8080000E+01  0.1226411E-25
 0.8100000E+01  0.9699694E-26
 0.8120000E+01  0.5946332E-26
 0.8140000E+01  0.1320409E-26
 0.8160000E+01 -0.3556377E-26
 0.8180000E+01 -0.8128930E-26
 0.8200000E+01 -0.1175888E-25
 0.8220000E+01 -0.1410761E-25
 0.8240000E+01 -0.1492530E-25
 0.8260000E+01 -0.1404541E-25
 0.8280000E+01 -0.1136244E-25
 0.8300000E+01 -0.7142792E-26
 0.8320000E+01 -0.1880491E-26
 0.8340000E+01  0.3936009E-26
 0.8360000E+01  0.9784933E-26
 0.8380000E+01  0.1512784E-25
 0.8400000E+01  0.1954841E-25
 0.8420000E+01  0.2257479E-25
 0.8440000E+01  0.2379062E-25
 0.8460000E+01  0.2329024E-25
 0.8480000E+01  0.2112914E-25
 0.8500000E+01  0.1753485E-25
 0.8520000E+01  0.1280711E-25
 0.8540000E+01  0.7356646E-26
 0.8560000E+01  0.1738530E-26
 0.8580000E+01 -0.3531018E-26
 0.8600000E+01 -0.8030138E-26
 0.8620000E+01 -0.1140357E-25
 0.8640000E+01 -0.1339596E-25
 0.8660000E+01 -0.1400173E-25
 0.8680000E+01 -0.1342626E-25
 0.8700000E+01 -0.1178609E-25
 0.8720000E+01 -0.9292115E-26
 0.8740000E+01 -0.6238515E-26
 0.8760000E+01 -0.3036027E-26
 0.8780000E+01  0.1544131E-27
 0.8800000E+01  0.3021985E-26
 0.8820000E+01  0.5211458E-26
 0.8840000E+01  0.6528575E-26
 0.8860000E+01  0.7001120E-26
 0.8880000E+01  0.6629107E-26
 0.8900000E+01  0.5479158E-26
 0.8920000E+01  0.3634537E-26
 0.8940000E+01  0.1411652E-26
 0.8960000E+01 -0.8175868E-27
 0.8980000E+01 -0.2964382E-26
 0.9000000E+01 -0.4706794E-26
 0.9020000E+01 -0.5722885E-26
 0.9040000E+01 -0.5940525E-26
 0.9060000E+01 -0.5398604E-26
 0.9080000E+01 -0.4080497E-26
 0.9100000E+01 -0.2008431E-26
 0.9120000E+01  0.6232902E-27
 0.9140000E+01  0.3675881E-26
 0.9160000E+01  0.6710797E-26
 0.9180000E+01  0.9339464E-26
 0.9200000E+01  0.1138425E-25
 0.9220000E+01  0.1255095E-25
 0.9240000E+01  0.1291729E-25
 0.9260000E+01  0.1240003E-25
 0.9280000E+01  0.1108245E-25
 0.9300000E+01  0.9042293E-26
 0.9320000E+01  0.6446104E-26
 0.9340000E+01  0.3504847E-26
 0.9360000E+01  0.5404959E-27
 0.9380000E+01 -0.2124980E-26
 0.9400000E+01 -0.4225126E-26
 0.9420000E+01 -0.5565654E-26
 0.9440000E+01 -0.6074403E-26
 0.9460000E+01 -0.6001187E-26
 0.9480000E+01 -0.5401532E-26
 0.9500000E+01 -0.4380932E-26
 0.9520000E+01 -0.3067093E-26
 0.9540000E+01 -0.1682093E-26
 0.9560000E+01 -0.4146986E-27
 0.9580000E+01  0.5407851E-27
 0.9600000E+01  0.1078876E-26
 0.9620000E+01  0.1077451E-26
 0.9640000E+01  0.5920292E-27
 0.9660000E+01 -0.3829230E-27
 0.9680000E+01 -0.1580930E-26
 0.9700000E+01 -0.2979760E-26
 0.9720000E+01 -0.4229658E-26
 0.9740000E+01 -0.5130742E-26
 0.9760000E+01 -0.5488682E-26
 0.9780000E+01 -0.5209067E-26
 0.9800000E+01 -0.4191946E-26
 0.9820000E+01 -0.2409538E-26
 0.9840000E+01 -0.6163901E-29
 0.9860000E+01  0.2746169E-26
 0.9880000E+01  0.5569888E-26
 0.9900000E+01  0.8287334E-26
 0.9920000E+01  0.1047104E-25
 0.9940000E+01  0.1195442E-25
 0.9960000E+01  0.1266528E-25
 0.9980000E+01  0.1234820E-25
 0.1000000E+02  0.1104756E-25
 0.1002000E+02  0.8913194E-26
 0.1004000E+02  0.6033885E-26
 0.1006000E+02  0.2620567E-26
 0.1008000E+02 -0.1060305E-26
 0.1010000E+02 -0.4642343E-26
 0.1012000E+02 -0.7859067E-26
 0.1014000E+02 -0.1058277E-25
 0.1016000E+02 -0.1247479E-25
 0.1018000E+02 -0.1339632E-25
 0.1020000E+02 -0.1324187E-25
 0.1022000E+02 -0.1197808E-25
 0.1024000E+02 -0.9915820E-26
 0.1026000E+02 -0.7099476E-26
 0.1028000E+02 -0.3801068E-26
 0.1030000E+02 -0.3037252E-27
 0.1032000E+02  0.3214878E-26
 0.1034000E+02  0.6449379E-26
 0.1036000E+02  0.9172129E-26
 0.1038000E+02  0.1132757E-25
 0.1040000E+02  0.1264365E-25
 0.1042000E+02  0.1308703E-25
 0.1044000E+02  0.1271319E-25
 0.1046000E+02  0.1151102E-25
 0.1048000E+02  0.9691463E-26
 0.1050000E+02  0.7393310E-26
 0.1052000E+02  0.4799773E-26
 0.1054000E+02  0.1960853E-26
 0.1056000E+02 -0.8236455E-27
 0.1058000E+02 -0.3398243E-26
 0.1060000E+02 -0.5485341E-26
 0.1062000E+02 -0.6762935E-26
 0.1064000E+02 -0.7203247E-26
 0.1066000E+02 -0.6845125E-26
 0.1068000E+02 -0.5710777E-26
 0.1070000E+02 -0.3911236E-26
 0.1072000E+02 -0.1729636E-26
 0.1074000E+02  0.6285982E-27
 0.1076000E+02  0.2869209E-26
 0.1078000E+02  0.4686834E-26
 0.1080000E+02  0.5937086E-26
 0.1082000E+02  0.6508883E-26
 0.1084000E+02  0.6318909E-26
 0.1086000E+02  0.5311622E-26
 0.1088000E+02  0.3531412E-26
 0.1090000E+02  0.1094848E-26
 0.1092000E+02 -0.1875938E-26
 0.1094000E+02 -0.5269904E-26
 0.1096000E+02 -0.8798374E-26
 0.1098000E+02 -0.1205054E-25
 0.1100000E+02 -0.1479878E-25
 0.1102000E+02 -0.1680991E-25
 0.1104000E+02 -0.1790072E-25
 0.1106000E+02 -0.1786580E-25
 0.1108000E+02 -0.1667737E-25
 0.1110000E+02 -0.1446866E-25
 0.1112000E+02 -0.1166156E-25
 0.1114000E+02 -0.8339346E-26
 0.1116000E+02 -0.4862871E-26
 0.1118000E+02 -0.1476402E-26
 0.1120000E+02  0.1181661E-26
 0.1122000E+02  0.2933659E-26
 0.1124000E+02  0.3635242E-26
 0.1126000E+02  0.3136512E-26
 0.1128000E+02  0.1603988E-26
 0.1130000E+02 -0.7513976E-27
 0.1132000E+02 -0.3724256E-26
 0.1134000E+02 -0.6953756E-26
 0.1136000E+02 -0.1014012E-25
 0.1138000E+02 -0.1290586E-25
 0.1140000E+02 -0.1464589E-25
 0.1142000E+02 -0.1514369E-25
 0.1144000E+02 -0.1421052E-25
 0.1146000E+02 -0.1187969E-25
 0.1148000E+02 -0.8212255E-26
 0.1150000E+02 -0.3474698E-26
 0.1152000E+02  0.1883324E-26
 0.1154000E+02  0.7423241E-26
 0.1156000E+02  0.1283415E-25
 0.1158000E+02  0.1768858E-25
 0.1160000E+02  0.2169782E-25
 0.1162000E+02  0.2445105E-25
 0.1164000E+02  0.2575393E-25
 0.1166000E+02  0.2573966E-25
 0.1168000E+02  0.2438600E-25
 0.1170000E+02  0.2183728E-25
 0.1172000E+02  0.1839324E-25
 0.1174000E+02  0.1454237E-25
 0.1176000E+02  0.1045674E-25
 0.1178000E+02  0.6663695E-26
 0.1180000E+02  0.3512950E-26
 0.1182000E+02  0.1093308E-26
 0.1184000E+02 -0.5008796E-27
 0.1186000E+02 -0.1197468E-26
 0.1188000E+02 -0.1185221E-26
 0.1190000E+02 -0.6418007E-27
 0.1192000E+02  0.2197596E-28
 0.1194000E+02  0.4952123E-27
 0.1196000E+02  0.3559947E-27
 0.1198000E+02 -0.7509678E-27
 0.1200000E+02 -0.2897854E-26
 0.1202000E+02 -0.6140184E-26
 0.1204000E+02 -0.1039469E-25
 0.1206000E+02 -0.1531721E-25
 0.1208000E+02 -0.2056357E-25
 0.1210000E+02 -0.2565638E-25
 0.1212000E+02 -0.3000166E-25
 0.1214000E+02 -0.3303875E-25
 0.1216000E+02 -0.3431799E-25
 0.1218000E+02 -0.3356738E-25
 0.1220000E+02 -0.3064258E-25
 0.1222000E+02 -0.2571014E-25
 0.1224000E+02 -0.1889774E-25
 0.1226000E+02 -0.1058290E-25
 0.1228000E+02 -0.1437307E-26
 0.1230000E+02  0.7734086E-26
 0.1232000E+02  0.1641500E-25
 0.1234000E+02  0.2398369E-25
 0.1236000E+02  0.2984061E-25
 0.1238000E+02  0.3362492E-25
 0.1240000E+02  0.3517561E-25
 0.1242000E+02  0.3440663E-25
 0.1244000E+02  0.3150115E-25
 0.1246000E+02  0.2670341E-25
 0.1248000E+02  0.2062401E-25
 0.1250000E+02  0.1384027E-25
 0.1252000E+02  0.6940579E-26
 0.1254000E+02  0.4633855E-27
 0.1256000E+02 -0.5130597E-26
 0.1258000E+02 -0.9397312E-26
 0.1260000E+02 -0.1227573E-25
 0.1262000E+02 -0.1363821E-25
 0.1264000E+02 -0.1363465E-25
 0.1266000E+02 -0.1237888E-25
 0.1268000E+02 -0.1027339E-25
 0.1270000E+02 -0.7740064E-26
 0.1272000E+02 -0.5275759E-26
 0.1274000E+02 -0.3357881E-26
 0.1276000E+02 -0.2344476E-26
 0.1278000E+02 -0.2349326E-26
 0.1280000E+02 -0.3550041E-26
 0.1282000E+02 -0.5863323E-26
 0.1284000E+02 -0.8997704E-26
 0.1286000E+02 -0.1264229E-25
 0.1288000E+02 -0.1646121E-25
 0.1290000E+02 -0.2006311E-25
 0.1292000E+02 -0.2291506E-25
 0.1294000E+02 -0.2467290E-25
 0.1296000E+02 -0.2490920E-25
 0.1298000E+02 -0.2353517E-25
 0.1300000E+02 -0.2046479E-25
 0.1302000E+02 -0.1600896E-25
 0.1304000E+02 -0.1032870E-25
 0.1306000E+02 -0.4006927E-26
 0.1308000E+02  0.2520565E-26
 0.1310000E+02  0.8926230E-26
 0.1312000E+02  0.1473820E-25
 0.1314000E+02  0.1947350E-25
 0.1316000E+02  0.2287124E-25
 0.1318000E+02  0.2477875E-25
 0.1320000E+02  0.2501563E-25
 0.1322000E+02  0.2373174E-25
 0.1324000E+02  0.2100204E-25
 0.1326000E+02  0.1733168E-25
 0.1328000E+02  0.1299542E-25
 0.1330000E+02  0.8356863E-26
 0.1332000E+02  0.3857285E-26
 0.1334000E+02 -0.2146923E-27
 0.1336000E+02 -0.3600998E-26
 0.1338000E+02 -0.6099083E-26
 0.1340000E+02 -0.7581342E-26
 0.1342000E+02 -0.8053382E-26
 0.1344000E+02 -0.7537467E-26
 0.1346000E+02 -0.6377812E-26
 0.1348000E+02 -0.4710456E-26
 0.1350000E+02 -0.2726933E-26
 0.1352000E+02 -0.6493007E-27
 0.1354000E+02  0.1328151E-26
 0.1356000E+02  0.3047230E-26
 0.1358000E+02  0.4433029E-26
 0.1360000E+02  0.5427295E-26
 0.1362000E+02  0.5896846E-26
 0.1364000E+02  0.5902783E-26
 0.1366000E+02  0.5542286E-26
 0.1368000E+02  0.4923622E-26
 0.1370000E+02  0.4304928E-26
 0.1372000E+02  0.3763911E-26
 0.1374000E+02  0.3458758E-26
 0.1376000E+02  0.3367227E-26
 0.1378000E+02  0.3422656E-26
 0.1380000E+02  0.3741554E-26
 0.1382000E+02  0.4226711E-26
 0.1384000E+02  0.4669886E-26
 0.1386000E+02  0.4987737E-26
 0.1388000E+02  0.5105260E-26
 0.1390000E+02  0.4828117E-26
 0.1392000E+02  0.4125736E-26
 0.1394000E+02  0.2989766E-26
 0.1396000E+02  0.1461825E-26
 0.1398000E+02 -0.1944149E-27